                         Program Version 5.0.4 -  RELEASE  -
|  1> !b3lyp 6-311+g** d4 moread UKS
|  2>
|  3> %moinp "Stone-Wales_defect_loss_all_orca6.0.gbw"
|  4>
|  5> %scf
|  6>   stabperform true
|  7>   stabdtol 0.00001
|  8>   stabrtol 0.00001
|  9>   end
| 10>
| 11> %maxcore 5000
| 12> %pal
| 13> nprocs 8
| 14> end
| 15>
| 16> %tddft
| 17>   nroots 1000
| 18>   end
| 19>
| 20> * xyz 0 1
| 21>   C   2.71298421600208     -3.33985907029249      0.00408862282025
| 22>   C   1.62894952381036     -3.98105538228225      0.00343311006043
| 23>   C   0.49399755947310     -3.18353207269706      0.00425633657058
| 24>   C   -0.87366918778543     -3.28194878469370      0.00415897719297
| 25>   C   -1.90681739844628     -2.62198050412133      0.00482240352459
| 26>   C   -2.27355126437604     -1.28619714461377      0.00617618604627
| 27>   C   -3.48376591912827     -0.56759823118329      0.00687620814728
| 28>   C   -3.68918606874886      0.65084166822616      0.00810090626790
| 29>   C   -2.71434594166232      1.66357684901013      0.00914046282442
| 30>   C   -2.52403474373496      3.04918640242731      0.01052025107029
| 31>   C   -1.45490923231414      3.68158257687912      0.01116213208327
| 32>   C   -0.14845918413508      3.18280865314331      0.01068132823039
| 33>   C   1.20836506103119      3.55134231969499      0.01105025377334
| 34>   C   2.17712504933983      2.78439639956928      0.01029357985810
| 35>   C   2.22588644525569      1.37790937874251      0.00890134657613
| 36>   C   3.22093036403385      0.41412545935610      0.00792594415340
| 37>   C   3.30220781818610     -0.80918935991331      0.00669363794271
| 38>   C   2.55836529959027     -1.96113444712599      0.00551677078035
| 39>   C   0.33107626214856     -0.55336918062113      0.00681459906704
| 40>   C   -1.42247968736763      1.01978882918565      0.00847404376336
| 41>   C   -1.16308129230826     -0.36553286718319      0.00706820837215
| 42>   C   1.04232257141807     -1.75530072711139      0.00562881548450
| 43>   C   0.88474817429057      0.84685583954253      0.00830328293240
| 44>   C   -0.20509842457239      1.74063339606179      0.00920259245787
| 45> **                         ****END OF INPUT****

CARTESIAN COORDINATES (ANGSTROEM)
---------------------------------
  C      2.712984   -3.339859    0.004089
  C      1.628950   -3.981055    0.003433
  C      0.493998   -3.183532    0.004256
  C     -0.873669   -3.281949    0.004159
  C     -1.906817   -2.621981    0.004822
  C     -2.273551   -1.286197    0.006176
  C     -3.483766   -0.567598    0.006876
  C     -3.689186    0.650842    0.008101
  C     -2.714346    1.663577    0.009140
  C     -2.524035    3.049186    0.010520
  C     -1.454909    3.681583    0.011162
  C     -0.148459    3.182809    0.010681
  C      1.208365    3.551342    0.011050
  C      2.177125    2.784396    0.010294
  C      2.225886    1.377909    0.008901
  C      3.220930    0.414125    0.007926
  C      3.302208   -0.809189    0.006694
  C      2.558365   -1.961134    0.005517
  C      0.331076   -0.553369    0.006815
  C     -1.422480    1.019789    0.008474
  C     -1.163081   -0.365533    0.007068
  C      1.042323   -1.755301    0.005629
  C      0.884748    0.846856    0.008303
  C     -0.205098    1.740633    0.009203

 Total Charge           Charge          ....    0
 Multiplicity           Mult            ....    1
 Number of Electrons    NEL             ....  144
 Basis Dimension        Dim             ....  528

ORBITAL ENERGIES
----------------
                 SPIN UP ORBITALS
  NO   OCC          E(Eh)            E(eV)
   0   1.0000     -10.274308      -279.5781
   1   1.0000     -10.274066      -279.5715
   2   1.0000     -10.270062      -279.4626
   3   1.0000     -10.269917      -279.4587
   4   1.0000     -10.266939      -279.3776
   5   1.0000     -10.264774      -279.3187
   6   1.0000     -10.253987      -279.0252
   7   1.0000     -10.253226      -279.0045
   8   1.0000     -10.239403      -278.6283
   9   1.0000     -10.239262      -278.6245
  10   1.0000     -10.226233      -278.2699
  11   1.0000     -10.225757      -278.2570
  12   1.0000     -10.223989      -278.2089
  13   1.0000     -10.223871      -278.2057
  14   1.0000     -10.223539      -278.1967
  15   1.0000     -10.221856      -278.1508
  16   1.0000     -10.221818      -278.1498
  17   1.0000     -10.221749      -278.1479
  18   1.0000     -10.221537      -278.1422
  19   1.0000     -10.220391      -278.1110
  20   1.0000     -10.220331      -278.1094
  21   1.0000     -10.213079      -277.9120
  22   1.0000     -10.212871      -277.9063
  23   1.0000     -10.212538      -277.8973
  24   1.0000      -0.960627       -26.1400
  25   1.0000      -0.931553       -25.3489
  26   1.0000      -0.914697       -24.8902
  27   1.0000      -0.887907       -24.1612
  28   1.0000      -0.860040       -23.4029
  29   1.0000      -0.859999       -23.4018
  30   1.0000      -0.832415       -22.6512
  31   1.0000      -0.807671       -21.9778
  32   1.0000      -0.786591       -21.4042
  33   1.0000      -0.769359       -20.9353
  34   1.0000      -0.760380       -20.6910
  35   1.0000      -0.738142       -20.0859
  36   1.0000      -0.692438       -18.8422
  37   1.0000      -0.687206       -18.6998
  38   1.0000      -0.674695       -18.3594
  39   1.0000      -0.642423       -17.4812
  40   1.0000      -0.599410       -16.3108
  41   1.0000      -0.591739       -16.1020
  42   1.0000      -0.588305       -16.0086
  43   1.0000      -0.580496       -15.7961
  44   1.0000      -0.561225       -15.2717
  45   1.0000      -0.544439       -14.8149
  46   1.0000      -0.531148       -14.4533
  47   1.0000      -0.526695       -14.3321
  48   1.0000      -0.505021       -13.7423
  49   1.0000      -0.480709       -13.0808
  50   1.0000      -0.475455       -12.9378
  51   1.0000      -0.469810       -12.7842
  52   1.0000      -0.459642       -12.5075
  53   1.0000      -0.441325       -12.0091
  54   1.0000      -0.431545       -11.7429
  55   1.0000      -0.428023       -11.6471
  56   1.0000      -0.421849       -11.4791
  57   1.0000      -0.394526       -10.7356
  58   1.0000      -0.380273       -10.3478
  59   1.0000      -0.371974       -10.1219
  60   1.0000      -0.330469        -8.9925
  61   1.0000      -0.320699        -8.7267
  62   1.0000      -0.317484        -8.6392
  63   1.0000      -0.315463        -8.5842
  64   1.0000      -0.311811        -8.4848
  65   1.0000      -0.309994        -8.4354
  66   1.0000      -0.303797        -8.2667
  67   1.0000      -0.301164        -8.1951
  68   1.0000      -0.296599        -8.0709
  69   1.0000      -0.272997        -7.4286
  70   1.0000      -0.263974        -7.1831
  71   1.0000      -0.226189        -6.1549
  72   0.0000      -0.137660        -3.7459
  73   0.0000      -0.131378        -3.5750
  74   0.0000      -0.123113        -3.3501
  75   0.0000      -0.115513        -3.1433
  76   0.0000      -0.098719        -2.6863

                 SPIN DOWN ORBITALS
  NO   OCC          E(Eh)            E(eV)
   0   1.0000     -10.274264      -279.5769
   1   1.0000     -10.274110      -279.5727
   2   1.0000     -10.270087      -279.4633
   3   1.0000     -10.269893      -279.4580
   4   1.0000     -10.266939      -279.3776
   5   1.0000     -10.264775      -279.3187
   6   1.0000     -10.254059      -279.0271
   7   1.0000     -10.253153      -279.0025
   8   1.0000     -10.239446      -278.6295
   9   1.0000     -10.239220      -278.6233
  10   1.0000     -10.226231      -278.2699
  11   1.0000     -10.225759      -278.2571
  12   1.0000     -10.224003      -278.2093
  13   1.0000     -10.223858      -278.2053
  14   1.0000     -10.223535      -278.1965
  15   1.0000     -10.221826      -278.1500
  16   1.0000     -10.221776      -278.1487
  17   1.0000     -10.221754      -278.1481
  18   1.0000     -10.221613      -278.1442
  19   1.0000     -10.220476      -278.1133
  20   1.0000     -10.220245      -278.1070
  21   1.0000     -10.213073      -277.9118
  22   1.0000     -10.212920      -277.9077
  23   1.0000     -10.212489      -277.8959
  24   1.0000      -0.960628       -26.1400
  25   1.0000      -0.931563       -25.3491
  26   1.0000      -0.914697       -24.8902
  27   1.0000      -0.887909       -24.1612
  28   1.0000      -0.860041       -23.4029
  29   1.0000      -0.859998       -23.4017
  30   1.0000      -0.832417       -22.6512
  31   1.0000      -0.807672       -21.9779
  32   1.0000      -0.786593       -21.4043
  33   1.0000      -0.769360       -20.9353
  34   1.0000      -0.760379       -20.6910
  35   1.0000      -0.738144       -20.0859
  36   1.0000      -0.692439       -18.8422
  37   1.0000      -0.687207       -18.6999
  38   1.0000      -0.674695       -18.3594
  39   1.0000      -0.642423       -17.4812
  40   1.0000      -0.599412       -16.3108
  41   1.0000      -0.591716       -16.1014
  42   1.0000      -0.588327       -16.0092
  43   1.0000      -0.580501       -15.7962
  44   1.0000      -0.561237       -15.2720
  45   1.0000      -0.544444       -14.8151
  46   1.0000      -0.531150       -14.4533
  47   1.0000      -0.526696       -14.3321
  48   1.0000      -0.505021       -13.7423
  49   1.0000      -0.480707       -13.0807
  50   1.0000      -0.475455       -12.9378
  51   1.0000      -0.469809       -12.7841
  52   1.0000      -0.459645       -12.5076
  53   1.0000      -0.441327       -12.0091
  54   1.0000      -0.431545       -11.7429
  55   1.0000      -0.428025       -11.6471
  56   1.0000      -0.421842       -11.4789
  57   1.0000      -0.394527       -10.7356
  58   1.0000      -0.380273       -10.3478
  59   1.0000      -0.371974       -10.1219
  60   1.0000      -0.330471        -8.9926
  61   1.0000      -0.320698        -8.7266
  62   1.0000      -0.317481        -8.6391
  63   1.0000      -0.315428        -8.5832
  64   1.0000      -0.311809        -8.4848
  65   1.0000      -0.309957        -8.4344
  66   1.0000      -0.303803        -8.2669
  67   1.0000      -0.301165        -8.1951
  68   1.0000      -0.296578        -8.0703
  69   1.0000      -0.272997        -7.4286
  70   1.0000      -0.263972        -7.1830
  71   1.0000      -0.226189        -6.1549
  72   0.0000      -0.137729        -3.7478
  73   0.0000      -0.131378        -3.5750
  74   0.0000      -0.123114        -3.3501
  75   0.0000      -0.115513        -3.1433
  76   0.0000      -0.098719        -2.6863

MULLIKEN ATOMIC CHARGES AND SPIN POPULATIONS
--------------------------------------------
   0 C :   -0.274868    0.340229
   1 C :   -0.267318   -0.344662
   2 C :    0.394817    0.015421
   3 C :    0.170813    0.053861
   4 C :    0.124607    0.012953
   5 C :   -0.306655   -0.029301
   6 C :   -0.091909    0.014370
   7 C :   -0.170835   -0.003460
   8 C :    0.395766    0.009034
   9 C :   -0.180323   -0.010356
  10 C :   -0.153099    0.009706
  11 C :    0.361316   -0.008921
  12 C :   -0.171715    0.004803
  13 C :   -0.107917   -0.015455
  14 C :   -0.382359    0.028148
  15 C :    0.139602   -0.012710
  16 C :    0.188037   -0.049298
  17 C :    0.379703   -0.009345
  18 C :    0.222167    0.000013
  19 C :    0.198379   -0.007022
  20 C :    0.246044    0.001851
  21 C :   -1.099935   -0.005562
  22 C :    0.214780   -0.001153
  23 C :    0.170902    0.006856
Sum of atomic charges         :   -0.0000000

LOEWDIN ATOMIC CHARGES AND SPIN POPULATIONS
-------------------------------------------
   0 C :    0.031752    0.422251
   1 C :    0.032167   -0.422185
   2 C :   -0.093588    0.021312
   3 C :    0.044488   -0.011237
   4 C :   -0.001170    0.018691
   5 C :   -0.033337   -0.007825
   6 C :    0.033311    0.008085
   7 C :    0.037112   -0.007350
   8 C :   -0.046533    0.007586
   9 C :    0.029853   -0.007976
  10 C :    0.030125    0.007971
  11 C :   -0.046528   -0.007588
  12 C :    0.036839    0.007369
  13 C :    0.033622   -0.008091
  14 C :   -0.033379    0.007834
  15 C :   -0.001282   -0.018677
  16 C :    0.044611    0.011199
  17 C :   -0.093529   -0.021327
  18 C :    0.043769   -0.000002
  19 C :   -0.026280   -0.001667
  20 C :   -0.022372    0.007983
  21 C :    0.049021   -0.000039
  22 C :   -0.022381   -0.007984
  23 C :   -0.026292    0.001669

  Mayer bond orders larger than 0.100000
B(  0-C ,  1-C ) :   1.7126 B(  0-C ,  2-C ) :  -0.6649 B(  0-C ,  3-C ) :  -0.1923
B(  0-C , 11-C ) :  -0.1322 B(  0-C , 16-C ) :  -0.7053 B(  0-C , 17-C ) :  -0.4610
B(  0-C , 18-C ) :   0.1257 B(  0-C , 21-C ) :   1.7346 B(  1-C ,  2-C ) :  -0.4745
B(  1-C ,  3-C ) :  -0.7133 B(  1-C ,  8-C ) :  -0.1374 B(  1-C , 16-C ) :  -0.1813
B(  1-C , 17-C ) :  -0.6729 B(  1-C , 18-C ) :   0.1096 B(  1-C , 21-C ) :   1.7282
B(  2-C ,  3-C ) :   1.8994 B(  2-C ,  4-C ) :   0.4412 B(  2-C ,  6-C ) :   0.3204
B(  2-C ,  8-C ) :   0.2016 B(  2-C , 10-C ) :  -0.1061 B(  2-C , 11-C ) :   0.1857
B(  2-C , 17-C ) :   0.7453 B(  2-C , 18-C ) :  -0.1961 B(  2-C , 20-C ) :  -0.1763
B(  2-C , 21-C ) :   0.2532 B(  3-C ,  4-C ) :   2.1764 B(  3-C ,  5-C ) :   0.1913
B(  3-C ,  7-C ) :   0.2182 B(  3-C , 14-C ) :  -0.1441 B(  3-C , 16-C ) :   0.2639
B(  3-C , 17-C ) :   0.1025 B(  3-C , 21-C ) :   0.3299 B(  4-C ,  5-C ) :   1.0951
B(  4-C ,  6-C ) :  -0.6656 B(  4-C , 19-C ) :   0.1161 B(  4-C , 20-C ) :   0.2978
B(  4-C , 22-C ) :  -0.1405 B(  5-C ,  6-C ) :   1.1004 B(  5-C ,  7-C ) :  -0.2698
B(  5-C ,  8-C ) :   0.4280 B(  5-C , 16-C ) :  -0.1504 B(  5-C , 18-C ) :  -0.2379
B(  5-C , 19-C ) :  -0.1418 B(  5-C , 20-C ) :   1.3581 B(  5-C , 21-C ) :   0.2499
B(  6-C ,  7-C ) :   1.3470 B(  6-C ,  8-C ) :  -0.4037 B(  6-C , 10-C ) :  -0.1371
B(  6-C , 19-C ) :   0.4817 B(  6-C , 20-C ) :   0.5930 B(  6-C , 22-C ) :   0.1894
B(  7-C ,  8-C ) :   0.6727 B(  7-C ,  9-C ) :  -0.8111 B(  7-C , 12-C ) :   0.2231
B(  7-C , 19-C ) :   0.1299 B(  7-C , 20-C ) :   0.5827 B(  7-C , 22-C ) :  -0.2184
B(  7-C , 23-C ) :  -0.2322 B(  8-C ,  9-C ) :   1.1544 B(  8-C , 10-C ) :  -0.2606
B(  8-C , 11-C ) :   0.5361 B(  8-C , 17-C ) :   0.1954 B(  8-C , 19-C ) :   0.9258
B(  8-C , 20-C ) :  -0.2858 B(  8-C , 21-C ) :  -0.2699 B(  8-C , 22-C ) :  -0.2101
B(  8-C , 23-C ) :  -0.1254 B(  9-C , 10-C ) :   1.5444 B(  9-C , 11-C ) :  -0.2740
B(  9-C , 13-C ) :  -0.1380 B(  9-C , 19-C ) :   0.1305 B(  9-C , 22-C ) :   0.1219
B(  9-C , 23-C ) :   0.4377 B( 10-C , 11-C ) :   1.1896 B( 10-C , 12-C ) :  -0.8045
B( 10-C , 19-C ) :   0.4166 B( 10-C , 20-C ) :   0.1170 B( 10-C , 23-C ) :   0.1317
B( 11-C , 12-C ) :   0.6606 B( 11-C , 13-C ) :  -0.4019 B( 11-C , 14-C ) :   0.4421
B( 11-C , 17-C ) :   0.1998 B( 11-C , 19-C ) :  -0.1404 B( 11-C , 20-C ) :  -0.2232
B( 11-C , 21-C ) :  -0.2606 B( 11-C , 22-C ) :  -0.2694 B( 11-C , 23-C ) :   0.9375
B( 12-C , 13-C ) :   1.3486 B( 12-C , 14-C ) :  -0.2767 B( 12-C , 16-C ) :   0.2039
B( 12-C , 19-C ) :  -0.2276 B( 12-C , 20-C ) :  -0.2196 B( 12-C , 22-C ) :   0.5862
B( 12-C , 23-C ) :   0.1403 B( 13-C , 14-C ) :   1.1046 B( 13-C , 15-C ) :  -0.6619
B( 13-C , 17-C ) :   0.3242 B( 13-C , 18-C ) :  -0.1032 B( 13-C , 19-C ) :   0.1036
B( 13-C , 20-C ) :   0.1960 B( 13-C , 22-C ) :   0.6083 B( 13-C , 23-C ) :   0.4971
B( 14-C , 15-C ) :   1.0857 B( 14-C , 16-C ) :   0.1935 B( 14-C , 18-C ) :  -0.2148
B( 14-C , 21-C ) :   0.2407 B( 14-C , 22-C ) :   1.4353 B( 14-C , 23-C ) :  -0.1073
B( 15-C , 16-C ) :   2.1695 B( 15-C , 17-C ) :   0.4286 B( 15-C , 20-C ) :  -0.1262
B( 15-C , 22-C ) :   0.2822 B( 15-C , 23-C ) :   0.1094 B( 16-C , 17-C ) :   1.8880
B( 16-C , 21-C ) :   0.3492 B( 17-C , 18-C ) :  -0.2156 B( 17-C , 21-C ) :   0.2294
B( 17-C , 22-C ) :  -0.1814 B( 18-C , 19-C ) :   0.4433 B( 18-C , 20-C ) :   1.1957
B( 18-C , 21-C ) :   1.6971 B( 18-C , 22-C ) :   1.1900 B( 18-C , 23-C ) :   0.4371
B( 19-C , 20-C ) :   1.1870 B( 19-C , 21-C ) :  -0.1114 B( 19-C , 22-C ) :   0.5981
B( 19-C , 23-C ) :   1.3343 B( 20-C , 21-C ) :   0.6724 B( 20-C , 22-C ) :   0.3839
B( 20-C , 23-C ) :   0.5901 B( 21-C , 22-C ) :   0.6941 B( 21-C , 23-C ) :  -0.1054
B( 22-C , 23-C ) :   1.1813

-----------------------------------------------------------------------------
         ABSORPTION SPECTRUM VIA TRANSITION ELECTRIC DIPOLE MOMENTS
-----------------------------------------------------------------------------
State   Energy    Wavelength  fosc         T2        TX        TY        TZ
        (cm-1)      (nm)                 (au**2)    (au)      (au)      (au)
-----------------------------------------------------------------------------
   1   10150.3    985.2   0.000000005   0.00000   0.00002   0.00001  -0.00040
   2   11621.1    860.5   0.000282719   0.00801   0.00005  -0.00001  -0.08949
   3   11841.2    844.5   0.000058498   0.00163   0.02057  -0.03469  -0.00003
   4   15304.7    653.4   0.014143186   0.30423   0.47480   0.28071   0.00029
   5   16854.8    593.3   0.001223787   0.02390  -0.07950   0.13260   0.00012
   6   16982.6    588.8   0.000000000   0.00000   0.00000   0.00000   0.00002
   7   17410.4    574.4   0.000000434   0.00001   0.00004  -0.00006  -0.00286
   8   17935.8    557.5   0.000008373   0.00015  -0.00001   0.00001   0.01240
   9   18233.4    548.4   0.000169962   0.00307   0.00000   0.00006  -0.05540
  10   18657.8    536.0   0.000000004   0.00000   0.00007   0.00005   0.00025
  11   18841.3    530.7   0.000000607   0.00001  -0.00170   0.00278   0.00001
  12   19011.4    526.0   0.000001075   0.00002  -0.00224   0.00369   0.00001
  13   19251.8    519.4   0.000003003   0.00005  -0.00618  -0.00363  -0.00000
  14   19768.7    505.9   0.000000005   0.00000  -0.00013   0.00026   0.00000
  15   20458.3    488.8   0.000006414   0.00010   0.00874   0.00518   0.00001
  16   20488.4    488.1   0.000000006   0.00000  -0.00002   0.00000  -0.00032
  17   21013.5    475.9   0.000161635   0.00253   0.04330   0.02564   0.00003
  18   21680.4    461.2   0.000000257   0.00000   0.00000  -0.00000  -0.00198
  19   21891.5    456.8   0.000000137   0.00000  -0.00000   0.00001  -0.00144
  20   22342.0    447.6   0.000000000   0.00000  -0.00000  -0.00000   0.00002
  21   22631.1    441.9   0.000000000   0.00000   0.00000   0.00000  -0.00002
  22   22809.8    438.4   0.000001000   0.00001   0.00189  -0.00329  -0.00004
  23   22997.9    434.8   0.000500670   0.00717   0.00003   0.00007  -0.08466
  24   23361.6    428.1   0.000000017   0.00000   0.00002   0.00002  -0.00048
  25   23627.8    423.2   0.000012151   0.00017  -0.00002   0.00002   0.01301
  26   23819.7    419.8   0.001984518   0.02743  -0.08243   0.14364   0.00012
  27   23928.7    417.9   0.000000000   0.00000  -0.00002  -0.00001  -0.00007
  28   24296.6    411.6   0.021400863   0.28998  -0.46364  -0.27389  -0.00028
  29   24709.6    404.7   0.000001147   0.00002  -0.00012  -0.00001  -0.00391
  30   24773.9    403.7   0.030798961   0.40928   0.55002   0.32674   0.00034
  31   25335.4    394.7   0.000000000   0.00000   0.00001   0.00001   0.00004
  32   25534.9    391.6   0.000024385   0.00031  -0.01522  -0.00910  -0.00001
  33   25743.3    388.5   0.000000003   0.00000   0.00003   0.00002   0.00021
  34   25776.8    387.9   0.000026447   0.00034   0.01613   0.00881   0.00001
  35   25806.9    387.5   0.000002036   0.00003  -0.00207   0.00466   0.00000
  36   25829.6    387.2   0.000000009   0.00000  -0.00002  -0.00002   0.00034
  37   25932.1    385.6   0.000004598   0.00006   0.00002  -0.00004   0.00764
  38   26340.8    379.6   0.000001042   0.00001   0.00003  -0.00007   0.00361
  39   26356.9    379.4   0.000156513   0.00195  -0.00043   0.00078  -0.04421
  40   26867.8    372.2   0.081876726   1.00324   0.51057  -0.86172  -0.00095
  41   27238.0    367.1   0.000978406   0.01183   0.00012  -0.00030   0.10874
  42   27726.5    360.7   0.001438434   0.01708  -0.06655   0.11248   0.00015
  43   27768.4    360.1   0.000003609   0.00004  -0.00031   0.00052  -0.00651
  44   28299.2    353.4   0.000003292   0.00004  -0.00539  -0.00304  -0.00001
  45   28317.0    353.1   0.000179567   0.00209   0.00002  -0.00008   0.04569
  46   28335.6    352.9   0.000002134   0.00002   0.00001   0.00003  -0.00498
  47   28842.6    346.7   0.000087706   0.00100   0.01611  -0.02723  -0.00012
  48   28862.1    346.5   0.000025412   0.00029  -0.00008   0.00016  -0.01702
  49   29108.9    343.5   0.000000003   0.00000  -0.00000  -0.00000   0.00019
  50   29147.3    343.1   0.000000002   0.00000   0.00000   0.00000  -0.00016
  51   29632.8    337.5   0.000000005   0.00000   0.00005   0.00004  -0.00022
  52   29756.7    336.1   0.000120319   0.00133  -0.03250  -0.01658  -0.00002
  53   30132.9    331.9   0.000014073   0.00015   0.01078   0.00613   0.00001
  54   30565.5    327.2   0.000171946   0.00185   0.00002   0.00002  -0.04303
  55   30912.4    323.5   0.000000013   0.00000  -0.00003   0.00006  -0.00037
  56   30993.1    322.7   0.007966236   0.08462   0.14786  -0.25051  -0.00027
  57   31227.9    320.2   0.000003214   0.00003   0.00295  -0.00502   0.00001
  58   31278.1    319.7   0.000193193   0.00203   0.00002  -0.00008   0.04509
  59   31512.6    317.3   0.000000000   0.00000   0.00000  -0.00000   0.00007
  60   31638.8    316.1   0.000000001   0.00000  -0.00001  -0.00000   0.00010
  61   31676.9    315.7   0.000051624   0.00054   0.01986   0.01193   0.00002
  62   31799.2    314.5   0.000292838   0.00303   0.02898  -0.04682  -0.00005
  63   32053.3    312.0   0.000020654   0.00021   0.01108  -0.00945  -0.00001
  64   32192.3    310.6   0.000433152   0.00443   0.00004  -0.00013   0.06656
  65   32232.1    310.2   0.002763734   0.02823   0.14484   0.08515   0.00008
  66   32296.4    309.6   0.000000305   0.00000   0.00006   0.00004  -0.00176
  67   32491.7    307.8   0.000018826   0.00019   0.00000   0.00003  -0.01381
  68   32590.9    306.8   0.000692068   0.00699   0.00000   0.00009  -0.08361
  69   32953.7    303.5   0.000048173   0.00048  -0.00006   0.00009   0.02194
  70   33078.3    302.3   0.000000289   0.00000  -0.00000   0.00000   0.00170
  71   33120.5    301.9   0.000000007   0.00000   0.00008  -0.00010   0.00024
  72   33151.3    301.6   0.001870171   0.01857   0.11642   0.07084   0.00008
  73   33279.0    300.5   0.000000002   0.00000   0.00001  -0.00013   0.00001
  74   33313.3    300.2   0.001688239   0.01668   0.06827  -0.10965  -0.00011
  75   33350.6    299.8   0.004187826   0.04134  -0.10521   0.17398   0.00019
  76   33366.5    299.7   0.001135565   0.01120  -0.04725   0.09472   0.00010
  77   33412.6    299.3   0.000067629   0.00067   0.02444   0.00830  -0.00000
  78   33521.8    298.3   0.000000008   0.00000   0.00022   0.00016   0.00007
  79   33532.9    298.2   0.000790591   0.00776  -0.00007  -0.00010   0.08810
  80   33565.5    297.9   0.005232353   0.05132   0.19511   0.11512   0.00014
  81   34184.6    292.5   0.000000000   0.00000  -0.00000  -0.00000  -0.00003
  82   34598.1    289.0   0.000055273   0.00053   0.00001  -0.00004   0.02293
  83   34604.7    289.0   0.000613039   0.00583  -0.06570  -0.03893  -0.00004
  84   34624.1    288.8   0.000000020   0.00000   0.00037   0.00023  -0.00006
  85   34704.3    288.1   0.000168970   0.00160   0.02078  -0.03422  -0.00003
  86   34851.2    286.9   0.000016006   0.00015   0.00987  -0.00734  -0.00001
  87   34889.1    286.6   0.000048463   0.00046   0.00003  -0.00006  -0.02138
  88   34914.5    286.4   0.001133792   0.01069  -0.05209   0.08932   0.00006
  89   35021.3    285.5   0.001506138   0.01416   0.10174   0.06170   0.00006
  90   35173.4    284.3   0.000454617   0.00426   0.05570   0.03394   0.00002
  91   35193.2    284.1   0.002493594   0.02333   0.00001  -0.00015   0.15273
  92   35235.7    283.8   0.002799017   0.02615  -0.13887  -0.08286  -0.00008
  93   35309.7    283.2   0.000000578   0.00001   0.00003  -0.00005  -0.00232
  94   35309.9    283.2   0.000000020   0.00000   0.00009   0.00009   0.00041
  95   35332.5    283.0   0.000094596   0.00088   0.01554  -0.02529  -0.00020
  96   35425.5    282.3   0.000105784   0.00098  -0.02780  -0.01450  -0.00002
  97   35585.2    281.0   0.036029028   0.33332   0.29603  -0.49566  -0.00049
  98   35621.6    280.7   0.000022281   0.00021   0.00002  -0.00001  -0.01435
  99   35740.9    279.8   0.013018249   0.11991  -0.17771   0.29720   0.00029
 100   35786.5    279.4   0.002164628   0.01991   0.11670   0.07934   0.00008
 101   35854.2    278.9   0.002890574   0.02654  -0.13886  -0.08519  -0.00009
 102   35920.1    278.4   0.000005763   0.00005  -0.00008   0.00007   0.00727
 103   36036.1    277.5   0.000000001   0.00000   0.00005   0.00004   0.00008
 104   36074.5    277.2   0.000373660   0.00341  -0.05097  -0.02849  -0.00003
 105   36247.0    275.9   0.000000000   0.00000   0.00005   0.00002  -0.00004
 106   36382.5    274.9   0.000000001   0.00000   0.00009   0.00004   0.00000
 107   36385.5    274.8   0.000690385   0.00625   0.05465  -0.05710  -0.00007
 108   36428.0    274.5   0.003209004   0.02900   0.14226   0.09362   0.00010
 109   36440.2    274.4   0.000026819   0.00024  -0.00003  -0.00000  -0.01557
 110   36639.5    272.9   0.000000016   0.00000   0.00004   0.00004  -0.00038
 111   36662.4    272.8   0.008762948   0.07869   0.14139  -0.24227  -0.00024
 112   36767.8    272.0   0.000002012   0.00002   0.00009  -0.00018   0.00424
 113   36973.4    270.5   0.000876368   0.00780  -0.07487  -0.04688  -0.00005
 114   36975.4    270.4   0.012882519   0.11470  -0.17430   0.29038   0.00030
 115   37189.2    268.9   0.000000000   0.00000  -0.00006   0.00001   0.00000
 116   37265.9    268.3   0.000994923   0.00879   0.04792  -0.08058  -0.00010
 117   37495.4    266.7   0.000230047   0.00202   0.00006  -0.00013   0.04494
 118   37728.7    265.1   0.004105399   0.03582  -0.16716  -0.08877  -0.00010
 119   37808.7    264.5   0.000253129   0.00220  -0.00012   0.00015   0.04695
 120   37863.4    264.1   0.006817131   0.05927  -0.11934   0.21220   0.00019
 121   37886.8    263.9   0.000000005   0.00000   0.00003  -0.00002   0.00020
 122   37937.0    263.6   0.000000002   0.00000   0.00008  -0.00002  -0.00010
 123   38197.2    261.8   0.000558642   0.00481  -0.03299   0.06104   0.00005
 124   38248.2    261.5   0.000007252   0.00006   0.00002  -0.00005  -0.00790
 125   38326.7    260.9   0.000486844   0.00418   0.03188  -0.05626  -0.00002
 126   38386.1    260.5   0.000006219   0.00005  -0.00429   0.00591   0.00003
 127   38413.8    260.3   0.000000054   0.00000  -0.00030  -0.00015  -0.00059
 128   38494.9    259.8   0.000887033   0.00759  -0.07465  -0.04487  -0.00005
 129   38618.6    258.9   0.025118292   0.21413   0.39873   0.23482   0.00019
 130   38645.2    258.8   0.001541256   0.01313  -0.00020   0.00012  -0.11458
 131   38711.6    258.3   0.000000148   0.00000  -0.00019  -0.00012   0.00110
 132   38780.8    257.9   0.004206402   0.03571   0.16239   0.09663   0.00010
 133   38921.0    256.9   0.000576714   0.00488   0.03941  -0.05766  -0.00005
 134   38978.6    256.6   0.000000017   0.00000   0.00021   0.00011  -0.00029
 135   39028.5    256.2   0.054555576   0.46019   0.58346   0.34606   0.00036
 136   39061.5    256.0   0.000000625   0.00001  -0.00021  -0.00008   0.00228
 137   39093.7    255.8   0.005426013   0.04569   0.18731   0.10300   0.00011
 138   39229.6    254.9   0.000000381   0.00000  -0.00008   0.00012   0.00178
 139   39281.8    254.6   0.012648247   0.10600   0.16193  -0.28246  -0.00028
 140   39517.5    253.1   0.217896090   1.81525  -0.68944   1.15755   0.00104
 141   39541.6    252.9   0.000000005   0.00000   0.00018  -0.00009  -0.00005
 142   39597.3    252.5   0.000002162   0.00002   0.00020   0.00009   0.00423
 143   39610.7    252.5   0.001205985   0.01002  -0.00068   0.00096   0.10011
 144   39783.4    251.4   0.000044566   0.00037  -0.00021   0.00005   0.01920
 145   39889.0    250.7   0.000000859   0.00001   0.00230   0.00135   0.00003
 146   39909.8    250.6   0.081040109   0.66849  -0.70138  -0.42020  -0.00043
 147   40081.8    249.5   0.000000013   0.00000   0.00024   0.00016   0.00016
 148   40247.1    248.5   0.005525049   0.04519   0.17902   0.11466   0.00012
 149   40296.7    248.2   0.048770947   0.39844  -0.31601   0.54642   0.00062
 150   40340.4    247.9   0.000000050   0.00000  -0.00045  -0.00027   0.00036
 151   40372.2    247.7   0.028980528   0.23632  -0.42052  -0.24389  -0.00025
 152   40458.3    247.2   0.000009276   0.00008   0.00026  -0.00026  -0.00868
 153   40459.5    247.2   0.010583590   0.08612  -0.16121   0.24521   0.00037
 154   40514.8    246.8   0.001386716   0.01127  -0.00025   0.00047  -0.10615
 155   40534.4    246.7   0.000037600   0.00031  -0.01683  -0.00472  -0.00001
 156   40670.7    245.9   0.002612226   0.02114  -0.07517   0.12448   0.00014
 157   40890.0    244.6   0.000228613   0.00184  -0.02145   0.03715   0.00006
 158   40907.2    244.5   0.000080063   0.00064  -0.00004   0.00007  -0.02538
 159   40941.0    244.3   0.000056604   0.00046  -0.00012   0.00021  -0.02133
 160   41055.7    243.6   0.000979516   0.00785   0.07707   0.04376   0.00004
 161   41091.5    243.4   0.000000070   0.00000  -0.00024  -0.00012  -0.00070
 162   41176.6    242.9   0.000006525   0.00005   0.00003  -0.00010   0.00722
 163   41270.9    242.3   0.000000002   0.00000   0.00008   0.00005   0.00009
 164   41532.2    240.8   0.006212382   0.04924   0.18831   0.11740   0.00012
 165   41652.8    240.1   0.000087430   0.00069   0.02248   0.01362   0.00001
 166   41815.5    239.1   0.000046440   0.00037  -0.00112   0.00187   0.01900
 167   41823.8    239.1   0.153189161   1.20581   0.55978  -0.94470  -0.00091
 168   41920.9    238.5   0.001710822   0.01344   0.00002   0.00003  -0.11591
 169   42084.9    237.6   0.000000044   0.00000   0.00003   0.00001   0.00059
 170   42140.7    237.3   0.000000000   0.00000  -0.00002   0.00003  -0.00002
 171   42346.7    236.1   0.011618855   0.09033  -0.15371   0.25826   0.00039
 172   42364.2    236.0   0.000119241   0.00093  -0.00059   0.00101  -0.03042
 173   42397.4    235.9   0.000267856   0.00208  -0.03213  -0.03236  -0.00003
 174   42484.8    235.4   0.049965900   0.38718   0.31572  -0.53619  -0.00055
 175   42579.1    234.9   0.009177848   0.07096  -0.23284  -0.12940  -0.00013
 176   42662.9    234.4   0.000004202   0.00003   0.00008   0.00002  -0.00569
 177   42706.6    234.2   0.000224046   0.00173   0.00007  -0.00016   0.04156
 178   42814.5    233.6   0.041242474   0.31712   0.48362   0.28851   0.00030
 179   42863.7    233.3   0.000060639   0.00047  -0.00007  -0.00001   0.02158
 180   43029.8    232.4   0.036455861   0.27892  -0.46469  -0.25095  -0.00026
 181   43032.1    232.4   0.006098854   0.04666   0.06631  -0.20558  -0.00021
 182   43187.4    231.5   0.000036042   0.00027  -0.00020   0.00037  -0.01657
 183   43214.0    231.4   0.017694143   0.13480  -0.18743   0.31570   0.00033
 184   43382.8    230.5   0.000003207   0.00002   0.00017  -0.00031   0.00492
 185   43398.4    230.4   0.000000022   0.00000  -0.00008  -0.00004  -0.00040
 186   43423.7    230.3   0.002235216   0.01695   0.06698  -0.11162  -0.00012
 187   43629.3    229.2   0.003647331   0.02752   0.14753   0.07588   0.00008
 188   43644.7    229.1   0.000386742   0.00292   0.00120   0.05400   0.00006
 189   43950.8    227.5   0.011847682   0.08874  -0.20175   0.21918   0.00022
 190   43965.2    227.5   0.004857725   0.03637  -0.06960  -0.17757  -0.00018
 191   44256.2    226.0   0.000007076   0.00005  -0.00005   0.00009  -0.00725
 192   44288.4    225.8   0.000000012   0.00000   0.00012  -0.00025  -0.00012
 193   44302.6    225.7   0.013796891   0.10252   0.16156  -0.27645  -0.00028
 194   44465.6    224.9   0.000000013   0.00000  -0.00023  -0.00011  -0.00017
 195   44491.9    224.8   0.000000020   0.00000  -0.00025  -0.00012   0.00027
 196   44570.9    224.4   0.026935334   0.19895   0.38120   0.23161   0.00023

Dispersion correction           -0.087383011
FINAL SINGLE POINT ENERGY      -913.514534528091

DIPOLE MOMENT
-------------
                                X             Y             Z
Electronic contribution:     -0.05809       0.09831       0.00009
Nuclear contribution   :     -0.00000      -0.00000       0.00000
                        -----------------------------------------
Total Dipole Moment    :     -0.05809       0.09831       0.00009
                        -----------------------------------------
Magnitude (a.u.)       :      0.11419
Magnitude (Debye)      :      0.29025

Rotational constants in cm-1:     0.014969     0.010008     0.005998
Rotational constants in MHz :   448.744909   300.039996   179.813215

                             ****ORCA TERMINATED NORMALLY****
TOTAL RUN TIME: 0 days 8 hours 20 minutes 49 seconds 305 msec
