                         Program Version 5.0.4 -  RELEASE  -
|  1> !b3lyp 6-311+g** d4
|  2>
|  3> %maxcore 5000
|  4> %pal
|  5> nprocs 8
|  6> end
|  7>
|  8> %tddft
|  9>   nroots 1000
| 10>   end
| 11>
| 12> * xyz 0 1
| 13>   C   2.38563257067293     -2.80896470388042     -0.00001293276846
| 14>   C   1.32513518026233     -3.43856909119664     -0.00004034767167
| 15>   C   0.03430161168417     -2.93352879445554     -0.00011246904013
| 16>   C   -1.25615999862344     -3.46212484936921     -0.00015425595494
| 17>   C   -2.30111120258552     -2.81438035036468     -0.00021962079492
| 18>   C   -2.50356590389742     -1.43045752950732     -0.00027167682387
| 19>   C   -3.72467793324503     -0.73280067677189     -0.00034687934997
| 20>   C   -3.73748294413923      0.63757885439878     -0.00038877495853
| 21>   C   -2.52838146465933      1.35477630939962     -0.00035607522704
| 22>   C   -2.34672559959412      2.74700783182244     -0.00039048803100
| 23>   C   -1.29066112167157      3.37354659858138     -0.00036243439127
| 24>   C   0.01889263006477      2.86788703799800     -0.00028985576826
| 25>   C   1.22697706796023      3.58680703610319     -0.00025939111115
| 26>   C   2.42429140377027      2.92008429546019     -0.00018840119487
| 27>   C   2.45307336065647      1.51399100554122     -0.00014457848073
| 28>   C   3.57260172387330      0.67516147819708     -0.00007013626701
| 29>   C   3.63973841093950     -0.55240177378359     -0.00002928067543
| 30>   C   2.55947164038255     -1.43378263490783     -0.00004923559846
| 31>   C   1.26429685846144     -0.72147893992175     -0.00012534764190
| 32>   C   1.23731746073363      0.72272752246253     -0.00017305297498
| 33>   C   -0.00564173195497      1.42041298775479     -0.00024677852890
| 34>   C   -1.24538806261078      0.68405599298829     -0.00027981463356
| 35>   C   -1.22712160270953     -0.74117183980094     -0.00023477358720
| 36>   C   0.02824947923193     -1.45573658376072     -0.00015931896494
| 37>   H   -4.64663384137248     -1.30010886135204     -0.00037157699867
| 38>   H   -4.66986960634854      1.18755531908654     -0.00044756545216
| 39>   H   1.18985754023164      4.66867187238172     -0.00029401255750
| 40>   H   3.36345546319358      3.45840020800585     -0.00016439645395
| 41> **                         ****END OF INPUT****

CARTESIAN COORDINATES (ANGSTROEM)
---------------------------------
  C      2.385633   -2.808965   -0.000013
  C      1.325135   -3.438569   -0.000040
  C      0.034302   -2.933529   -0.000112
  C     -1.256160   -3.462125   -0.000154
  C     -2.301111   -2.814380   -0.000220
  C     -2.503566   -1.430458   -0.000272
  C     -3.724678   -0.732801   -0.000347
  C     -3.737483    0.637579   -0.000389
  C     -2.528381    1.354776   -0.000356
  C     -2.346726    2.747008   -0.000390
  C     -1.290661    3.373547   -0.000362
  C      0.018893    2.867887   -0.000290
  C      1.226977    3.586807   -0.000259
  C      2.424291    2.920084   -0.000188
  C      2.453073    1.513991   -0.000145
  C      3.572602    0.675161   -0.000070
  C      3.639738   -0.552402   -0.000029
  C      2.559472   -1.433783   -0.000049
  C      1.264297   -0.721479   -0.000125
  C      1.237317    0.722728   -0.000173
  C     -0.005642    1.420413   -0.000247
  C     -1.245388    0.684056   -0.000280
  C     -1.227122   -0.741172   -0.000235
  C      0.028249   -1.455737   -0.000159
  H     -4.646634   -1.300109   -0.000372
  H     -4.669870    1.187555   -0.000448
  H      1.189858    4.668672   -0.000294
  H      3.363455    3.458400   -0.000164

 Total Charge           Charge          ....    0
 Multiplicity           Mult            ....    1
 Number of Electrons    NEL             ....  148
 Basis Dimension        Dim             ....  552

ORBITAL ENERGIES
----------------

  NO   OCC          E(Eh)            E(eV)
   0   2.0000     -10.253531      -279.0128
   1   2.0000     -10.253503      -279.0120
   2   2.0000     -10.233888      -278.4783
   3   2.0000     -10.233866      -278.4776
   4   2.0000     -10.233278      -278.4616
   5   2.0000     -10.233254      -278.4610
   6   2.0000     -10.231145      -278.4036
   7   2.0000     -10.230744      -278.3927
   8   2.0000     -10.226729      -278.2834
   9   2.0000     -10.226688      -278.2823
  10   2.0000     -10.224123      -278.2125
  11   2.0000     -10.223733      -278.2019
  12   2.0000     -10.204504      -277.6787
  13   2.0000     -10.204462      -277.6775
  14   2.0000     -10.204281      -277.6726
  15   2.0000     -10.203550      -277.6527
  16   2.0000     -10.203540      -277.6524
  17   2.0000     -10.202366      -277.6205
  18   2.0000     -10.202082      -277.6128
  19   2.0000     -10.201964      -277.6095
  20   2.0000     -10.198023      -277.5023
  21   2.0000     -10.197931      -277.4998
  22   2.0000     -10.197746      -277.4948
  23   2.0000     -10.195744      -277.4403
  24   2.0000      -0.939453       -25.5638
  25   2.0000      -0.906387       -24.6640
  26   2.0000      -0.905292       -24.6342
  27   2.0000      -0.860678       -23.4202
  28   2.0000      -0.858527       -23.3617
  29   2.0000      -0.834174       -22.6990
  30   2.0000      -0.814837       -22.1729
  31   2.0000      -0.791712       -21.5436
  32   2.0000      -0.769965       -20.9518
  33   2.0000      -0.762078       -20.7372
  34   2.0000      -0.744776       -20.2664
  35   2.0000      -0.743250       -20.2249
  36   2.0000      -0.670735       -18.2516
  37   2.0000      -0.663781       -18.0624
  38   2.0000      -0.649640       -17.6776
  39   2.0000      -0.641742       -17.4627
  40   2.0000      -0.639930       -17.4134
  41   2.0000      -0.589184       -16.0325
  42   2.0000      -0.562573       -15.3084
  43   2.0000      -0.549635       -14.9563
  44   2.0000      -0.548375       -14.9220
  45   2.0000      -0.538062       -14.6414
  46   2.0000      -0.528472       -14.3804
  47   2.0000      -0.505810       -13.7638
  48   2.0000      -0.496004       -13.4969
  49   2.0000      -0.481726       -13.1084
  50   2.0000      -0.479496       -13.0478
  51   2.0000      -0.461647       -12.5620
  52   2.0000      -0.458789       -12.4843
  53   2.0000      -0.446792       -12.1578
  54   2.0000      -0.445090       -12.1115
  55   2.0000      -0.421776       -11.4771
  56   2.0000      -0.420043       -11.4300
  57   2.0000      -0.416315       -11.3285
  58   2.0000      -0.412258       -11.2181
  59   2.0000      -0.389611       -10.6018
  60   2.0000      -0.382753       -10.4152
  61   2.0000      -0.370176       -10.0730
  62   2.0000      -0.366855        -9.9826
  63   2.0000      -0.349833        -9.5194
  64   2.0000      -0.310057        -8.4371
  65   2.0000      -0.300344        -8.1728
  66   2.0000      -0.299070        -8.1381
  67   2.0000      -0.295122        -8.0307
  68   2.0000      -0.294249        -8.0069
  69   2.0000      -0.288447        -7.8490
  70   2.0000      -0.282709        -7.6929
  71   2.0000      -0.281079        -7.6485
  72   2.0000      -0.237566        -6.4645
  73   2.0000      -0.235751        -6.4151
  74   0.0000      -0.109709        -2.9853
  75   0.0000      -0.098128        -2.6702
  76   0.0000      -0.097470        -2.6523
  77   0.0000      -0.089233        -2.4282
  78   0.0000      -0.088176        -2.3994

MULLIKEN ATOMIC CHARGES
-----------------------
   0 C :   -0.276058
   1 C :   -0.912255
   2 C :    2.115371
   3 C :   -0.317845
   4 C :    0.000539
   5 C :    1.517802
   6 C :   -0.205603
   7 C :   -0.160634
   8 C :    1.626373
   9 C :   -0.093493
  10 C :   -0.551369
  11 C :    2.341826
  12 C :    0.081177
  13 C :   -0.248960
  14 C :    0.896355
  15 C :    0.016672
  16 C :   -0.336642
  17 C :    0.640053
  18 C :   -0.252529
  19 C :   -2.414755
  20 C :   -0.784747
  21 C :   -0.882470
  22 C :   -2.684211
  23 C :    0.298917
  24 H :    0.145932
  25 H :    0.146677
  26 H :    0.147354
  27 H :    0.146523
Sum of atomic charges:   -0.0000000

LOEWDIN ATOMIC CHARGES
----------------------
   0 C :    0.024274
   1 C :    0.024330
   2 C :   -0.053453
   3 C :    0.008480
   4 C :    0.030736
   5 C :   -0.061070
   6 C :   -0.025422
   7 C :   -0.026255
   8 C :   -0.057334
   9 C :    0.016262
  10 C :    0.016569
  11 C :   -0.057409
  12 C :   -0.026283
  13 C :   -0.025403
  14 C :   -0.061021
  15 C :    0.030176
  16 C :    0.009052
  17 C :   -0.053555
  18 C :   -0.007274
  19 C :   -0.011044
  20 C :   -0.014311
  21 C :   -0.014320
  22 C :   -0.010952
  23 C :   -0.007369
  24 H :    0.088181
  25 H :    0.088120
  26 H :    0.088118
  27 H :    0.088176

  Mayer bond orders larger than 0.100000
B(  0-C ,  1-C ) :   0.7205 B(  0-C ,  2-C ) :   0.2447 B(  0-C ,  3-C ) :   0.1325
B(  0-C , 10-C ) :   0.1201 B(  0-C , 11-C ) :   0.2130 B(  0-C , 14-C ) :  -0.2386
B(  0-C , 16-C ) :  -1.5116 B(  0-C , 17-C ) :  -0.8652 B(  0-C , 18-C ) :   1.6672
B(  0-C , 19-C ) :  -1.6687 B(  0-C , 20-C ) :   0.8741 B(  0-C , 21-C ) :  -0.1344
B(  0-C , 22-C ) :  -0.7512 B(  0-C , 23-C ) :   0.2282 B(  1-C ,  2-C ) :  -1.9901
B(  1-C ,  3-C ) :  -1.6237 B(  1-C ,  4-C ) :  -0.2060 B(  1-C ,  9-C ) :  -0.1485
B(  1-C , 10-C ) :   0.8475 B(  1-C , 11-C ) :  -1.0478 B(  1-C , 12-C ) :  -0.3480
B(  1-C , 14-C ) :   0.5464 B(  1-C , 16-C ) :  -0.3282 B(  1-C , 17-C ) :  -0.6270
B(  1-C , 18-C ) :  -0.6766 B(  1-C , 19-C ) :   3.1234 B(  1-C , 20-C ) :  -1.5413
B(  1-C , 21-C ) :  -0.3119 B(  1-C , 22-C ) :   2.0368 B(  2-C ,  3-C ) :  -1.3867
B(  2-C ,  5-C ) :  -0.2849 B(  2-C ,  7-C ) :   0.2408 B(  2-C ,  8-C ) :   0.9049
B(  2-C ,  9-C ) :  -0.1446 B(  2-C , 10-C ) :  -0.3956 B(  2-C , 11-C ) :   1.8507
B(  2-C , 12-C ) :   0.5639 B(  2-C , 14-C ) :  -0.2958 B(  2-C , 15-C ) :   0.1489
B(  2-C , 16-C ) :  -0.1210 B(  2-C , 17-C ) :   0.5518 B(  2-C , 18-C ) :  -0.6762
B(  2-C , 19-C ) :  -1.5791 B(  2-C , 20-C ) :  -0.1515 B(  2-C , 21-C ) :  -0.5405
B(  2-C , 22-C ) :  -1.8251 B(  2-C , 23-C ) :   0.1036 B(  3-C ,  4-C ) :  -0.2802
B(  3-C ,  5-C ) :   1.1933 B(  3-C ,  6-C ) :   0.3217 B(  3-C ,  7-C ) :  -0.1754
B(  3-C ,  8-C ) :  -1.5115 B(  3-C ,  9-C ) :   0.6385 B(  3-C , 11-C ) :   0.3258
B(  3-C , 17-C ) :  -0.7575 B(  3-C , 18-C ) :  -2.0941 B(  3-C , 19-C ) :   1.1683
B(  3-C , 20-C ) :   0.5098 B(  3-C , 21-C ) :  -1.2484 B(  3-C , 23-C ) :   2.1424
B(  4-C ,  6-C ) :  -1.6162 B(  4-C ,  7-C ) :   0.2274 B(  4-C ,  8-C ) :   0.2897
B(  4-C , 11-C ) :   0.1249 B(  4-C , 17-C ) :   0.6740 B(  4-C , 18-C ) :   0.6253
B(  4-C , 19-C ) :  -0.4721 B(  4-C , 22-C ) :   1.3672 B(  4-C , 24-H ) :  -0.1988
B(  5-C ,  7-C ) :  -0.2172 B(  5-C ,  8-C ) :   1.4970 B(  5-C ,  9-C ) :  -0.6921
B(  5-C , 10-C ) :   0.4525 B(  5-C , 11-C ) :  -0.6606 B(  5-C , 14-C ) :   0.2887
B(  5-C , 17-C ) :  -0.1157 B(  5-C , 18-C ) :   1.1951 B(  5-C , 19-C ) :  -1.0670
B(  5-C , 20-C ) :   0.2260 B(  5-C , 21-C ) :   0.6855 B(  5-C , 22-C ) :  -1.4061
B(  5-C , 23-C ) :  -0.4425 B(  5-C , 24-H ) :  -0.4359 B(  5-C , 25-H ) :  -0.1187
B(  6-C ,  7-C ) :   0.4135 B(  6-C ,  9-C ) :   0.1562 B(  6-C , 10-C ) :   0.1225
B(  6-C , 11-C ) :   0.5088 B(  6-C , 19-C ) :   0.1022 B(  6-C , 20-C ) :  -0.2982
B(  6-C , 22-C ) :   0.9801 B(  6-C , 23-C ) :   0.1410 B(  6-C , 24-H ) :   1.2682
B(  7-C ,  8-C ) :   0.2754 B(  7-C ,  9-C ) :  -2.0724 B(  7-C , 11-C ) :  -0.2981
B(  7-C , 12-C ) :   0.2296 B(  7-C , 15-C ) :  -0.1437 B(  7-C , 17-C ) :   0.1778
B(  7-C , 18-C ) :   0.3279 B(  7-C , 19-C ) :  -0.4269 B(  7-C , 20-C ) :   0.5037
B(  7-C , 21-C ) :   0.8681 B(  7-C , 22-C ) :   0.1887 B(  7-C , 23-C ) :  -0.1111
B(  7-C , 25-H ) :   1.3980 B(  8-C ,  9-C ) :  -0.5943 B(  8-C , 10-C ) :  -0.9658
B(  8-C , 11-C ) :   0.8825 B(  8-C , 12-C ) :  -0.4163 B(  8-C , 13-C ) :   0.3994
B(  8-C , 14-C ) :  -0.3726 B(  8-C , 18-C ) :  -0.4531 B(  8-C , 19-C ) :   0.5197
B(  8-C , 20-C ) :  -1.0526 B(  8-C , 21-C ) :  -0.8378 B(  8-C , 22-C ) :   0.8239
B(  8-C , 23-C ) :  -0.8115 B(  8-C , 24-H ) :  -0.1518 B(  8-C , 25-H ) :  -0.6127
B(  9-C , 10-C ) :   0.5532 B(  9-C , 11-C ) :   0.4971 B(  9-C , 12-C ) :   0.4928
B(  9-C , 16-C ) :   0.1165 B(  9-C , 17-C ) :  -0.3247 B(  9-C , 18-C ) :   0.2045
B(  9-C , 19-C ) :  -0.9048 B(  9-C , 20-C ) :   0.1012 B(  9-C , 21-C ) :   2.4657
B(  9-C , 22-C ) :  -2.2113 B(  9-C , 23-C ) :   1.5099 B(  9-C , 25-H ) :  -0.2186
B( 10-C , 11-C ) :  -0.7748 B( 10-C , 12-C ) :  -2.8571 B( 10-C , 13-C ) :   0.4158
B( 10-C , 17-C ) :  -0.5327 B( 10-C , 18-C ) :  -0.7823 B( 10-C , 19-C ) :   2.0733
B( 10-C , 20-C ) :   1.6258 B( 10-C , 21-C ) :  -1.7439 B( 10-C , 22-C ) :   2.8074
B( 10-C , 23-C ) :  -1.2305 B( 10-C , 26-H ) :  -0.2144 B( 11-C , 12-C ) :   1.2697
B( 11-C , 13-C ) :   0.1912 B( 11-C , 14-C ) :  -0.1993 B( 11-C , 16-C ) :  -0.2480
B( 11-C , 17-C ) :   0.6268 B( 11-C , 18-C ) :   1.5989 B( 11-C , 19-C ) :  -2.1923
B( 11-C , 20-C ) :  -1.9697 B( 11-C , 21-C ) :  -0.4779 B( 11-C , 22-C ) :  -1.7089
B( 11-C , 23-C ) :  -0.8886 B( 11-C , 26-H ) :  -0.6440 B( 11-C , 27-H ) :  -0.1314
B( 12-C , 13-C ) :   0.2006 B( 12-C , 14-C ) :  -0.1629 B( 12-C , 15-C ) :   0.2860
B( 12-C , 16-C ) :  -0.1897 B( 12-C , 17-C ) :  -0.2537 B( 12-C , 19-C ) :  -0.6236
B( 12-C , 20-C ) :   1.0290 B( 12-C , 21-C ) :   0.5991 B( 12-C , 22-C ) :  -1.2101
B( 12-C , 23-C ) :   0.7004 B( 12-C , 26-H ) :   1.4096 B( 13-C , 14-C ) :  -0.3790
B( 13-C , 15-C ) :  -1.5113 B( 13-C , 16-C ) :   0.3131 B( 13-C , 17-C ) :   0.4388
B( 13-C , 18-C ) :  -0.2645 B( 13-C , 19-C ) :   1.3115 B( 13-C , 20-C ) :  -0.3344
B( 13-C , 21-C ) :  -0.4613 B( 13-C , 22-C ) :   0.3131 B( 13-C , 27-H ) :   1.2569
B( 14-C , 16-C ) :   0.3368 B( 14-C , 17-C ) :  -0.5032 B( 14-C , 18-C ) :  -0.6700
B( 14-C , 19-C ) :   0.6519 B( 14-C , 20-C ) :   1.0533 B( 14-C , 21-C ) :   0.1049
B( 14-C , 22-C ) :  -0.6318 B( 14-C , 23-C ) :   0.7773 B( 14-C , 26-H ) :  -0.1070
B( 14-C , 27-H ) :  -0.4887 B( 15-C , 18-C ) :   0.6615 B( 15-C , 19-C ) :   1.7253
B( 15-C , 20-C ) :  -0.6138 B( 15-C , 21-C ) :   0.4734 B( 15-C , 27-H ) :  -0.2090
B( 16-C , 17-C ) :  -1.0666 B( 16-C , 18-C ) :   1.3572 B( 16-C , 19-C ) :  -0.7091
B( 16-C , 23-C ) :  -0.6622 B( 16-C , 27-H ) :  -0.1184 B( 17-C , 18-C ) :   1.6049
B( 17-C , 19-C ) :  -0.8603 B( 17-C , 20-C ) :   0.5991 B( 17-C , 21-C ) :   0.1812
B( 17-C , 22-C ) :   0.2023 B( 17-C , 23-C ) :  -1.0878 B( 18-C , 19-C ) :   2.7932
B( 18-C , 20-C ) :  -1.0828 B( 18-C , 21-C ) :   0.2883 B( 18-C , 22-C ) :  -0.5885
B( 18-C , 23-C ) :   3.8049 B( 19-C , 20-C ) :   2.7281 B( 19-C , 21-C ) :  -0.9292
B( 19-C , 22-C ) :   2.9961 B( 19-C , 23-C ) :  -1.2068 B( 19-C , 27-H ) :   0.4810
B( 20-C , 21-C ) :   4.1599 B( 20-C , 22-C ) :   0.8330 B( 20-C , 23-C ) :  -0.3320
B( 20-C , 26-H ) :   0.5182 B( 21-C , 22-C ) :   2.3305 B( 21-C , 23-C ) :   1.4364
B( 21-C , 24-H ) :   0.1003 B( 21-C , 25-H ) :   0.4843 B( 22-C , 23-C ) :   2.6617
B( 22-C , 24-H ) :   0.3910

-----------------------------------------------------------------------------
         ABSORPTION SPECTRUM VIA TRANSITION ELECTRIC DIPOLE MOMENTS
-----------------------------------------------------------------------------
State   Energy    Wavelength  fosc         T2        TX        TY        TZ
        (cm-1)      (nm)                 (au**2)    (au)      (au)      (au)
-----------------------------------------------------------------------------
   1   20946.4    477.4   0.000007288   0.00011   0.00000  -0.00000   0.01070
   2   21483.2    465.5   0.000000000   0.00000   0.00000   0.00000  -0.00001
   3   23186.1    431.3   0.000000000   0.00000   0.00000   0.00000   0.00002
   4   23528.1    425.0   0.000000007   0.00000  -0.00000  -0.00000  -0.00031
   5   23896.9    418.5   0.000296011   0.00408   0.00000  -0.00000  -0.06386
   6   24451.8    409.0   0.000187969   0.00253   0.00000  -0.00000  -0.05031
   7   25897.7    386.1   0.001237339   0.01573   0.00001  -0.00000  -0.12542
   8   26152.6    382.4   0.000000017   0.00000  -0.00000  -0.00000   0.00046
   9   26797.3    373.2   0.002978386   0.03659  -0.09752   0.16456  -0.00001
  10   28327.7    353.0   0.013173369   0.15309   0.33658   0.19953   0.00001
  11   31177.7    320.7   0.000000001   0.00000  -0.00000   0.00000  -0.00008
  12   31904.6    313.4   0.000116979   0.00121  -0.00001   0.00000   0.03474
  13   33130.8    301.8   0.191083216   1.89874  -1.18378  -0.70527  -0.00003
  14   33466.9    298.8   0.000000002   0.00000  -0.00000   0.00001   0.00014
  15   33952.4    294.5   0.277606377   2.69175  -0.83933   1.40971  -0.00008
  16   34024.4    293.9   0.000000027   0.00000   0.00001  -0.00001   0.00051
  17   34249.0    292.0   0.000219922   0.00211  -0.00000   0.00000  -0.04598
  18   34797.0    287.4   0.000010935   0.00010  -0.00001  -0.00001   0.01017
  19   35105.6    284.9   0.067846192   0.63624  -0.68597  -0.40705  -0.00002
  20   35606.3    280.8   0.000004831   0.00004   0.00000   0.00001  -0.00668
  21   35779.6    279.5   0.001206463   0.01110  -0.09884  -0.03648  -0.00000
  22   35802.1    279.3   0.000000000   0.00000   0.00004  -0.00001  -0.00000
  23   35834.8    279.1   0.011563159   0.10623  -0.16050   0.28367  -0.00002
  24   36093.9    277.1   0.001749083   0.01595   0.10727   0.06669   0.00000
  25   36479.2    274.1   0.026973668   0.24343   0.42638   0.24826   0.00001
  26   36545.4    273.6   0.000191415   0.00172  -0.01710   0.03784  -0.00000
  27   36858.4    271.3   0.000027578   0.00025   0.00002  -0.00006   0.01569
  28   36887.7    271.1   0.036982673   0.33006  -0.29162   0.49499  -0.00004
  29   36961.9    270.5   0.001196544   0.01066   0.00004  -0.00007  -0.10323
  30   37133.1    269.3   0.009437755   0.08367  -0.24879  -0.14757  -0.00001
  31   37346.8    267.8   0.018630830   0.16423   0.34887   0.20621   0.00001
  32   37561.0    266.2   0.013513340   0.11844   0.17918  -0.29383   0.00002
  33   37901.2    263.8   0.000000015   0.00000   0.00005  -0.00001  -0.00036
  34   38132.4    262.2   0.001857577   0.01604   0.00014   0.00009  -0.12664
  35   38148.8    262.1   0.148068200   1.27778   0.96811   0.58355   0.00004
  36   38180.9    261.9   0.000002143   0.00002  -0.00018  -0.00010  -0.00429
  37   38197.0    261.8   0.000000007   0.00000   0.00002   0.00007  -0.00024
  38   38261.1    261.4   0.259367663   2.23169  -0.76598   1.28256  -0.00007
  39   38458.0    260.0   0.000000053   0.00000  -0.00001  -0.00002   0.00067
  40   38480.1    259.9   0.000000006   0.00000  -0.00003   0.00003   0.00022
  41   39072.0    255.9   0.007135025   0.06012   0.12572  -0.21051   0.00000
  42   39124.5    255.6   0.000350797   0.00295   0.00003  -0.00003   0.05433
  43   39171.2    255.3   0.007024859   0.05904   0.20757   0.12632   0.00000
  44   39488.0    253.2   0.000177791   0.00148   0.01906  -0.03345   0.00000
  45   39756.9    251.5   0.000476562   0.00395   0.05441   0.03139   0.00001
  46   39986.2    250.1   0.000000066   0.00000  -0.00001  -0.00002  -0.00074
  47   40009.7    249.9   0.000833538   0.00686   0.00001   0.00001  -0.08282
  48   40206.3    248.7   0.012657247   0.10364   0.27597   0.16577   0.00000
  49   40267.2    248.3   0.025008076   0.20446  -0.38363  -0.23935  -0.00000
  50   40282.0    248.2   0.000000043   0.00000   0.00018   0.00014   0.00055
  51   40403.2    247.5   0.002828707   0.02305   0.00002   0.00003   0.15182
  52   40420.7    247.4   0.040787779   0.33220   0.29990  -0.49220   0.00003
  53   40612.4    246.2   0.000025659   0.00021  -0.00000   0.00000   0.01442
  54   40665.9    245.9   0.008127475   0.06580  -0.13081   0.22064  -0.00001
  55   40746.1    245.4   0.002875343   0.02323  -0.13116  -0.07764  -0.00000
  56   40835.3    244.9   0.000000056   0.00000   0.00001  -0.00003  -0.00067
  57   42365.8    236.0   0.061673534   0.47925  -0.34977   0.59742  -0.00003
  58   42478.1    235.4   0.000000017   0.00000  -0.00031  -0.00017  -0.00012
  59   42494.1    235.3   0.182731224   1.41566  -1.02535  -0.60359  -0.00003
  60   42773.1    233.8   0.005076602   0.03907  -0.09597   0.17281  -0.00001
  61   42918.9    233.0   0.026375047   0.20231  -0.38812  -0.22731  -0.00001
  62   43050.7    232.3   0.000826515   0.00632  -0.06859  -0.04020  -0.00000
  63   44350.2    225.5   0.007856007   0.05832   0.12398  -0.20723   0.00001
  64   45102.9    221.7   0.041373277   0.30199   0.47201   0.28141   0.00001
  65   46103.1    216.9   0.000069049   0.00049   0.01231  -0.01848   0.00000
  66   46680.9    214.2   0.000000000   0.00000  -0.00000   0.00000   0.00003
  67   47308.8    211.4   0.000195818   0.00136  -0.02000   0.03103  -0.00000
  68   47381.2    211.1   0.000000005   0.00000   0.00000  -0.00000  -0.00019
  69   47597.0    210.1   0.002953795   0.02043   0.12239   0.07382   0.00001
  70   47692.3    209.7   0.001056470   0.00729   0.00000  -0.00001  -0.08540
  71   47751.4    209.4   0.000829903   0.00572  -0.00001  -0.00000   0.07564
  72   47913.3    208.7   0.000000012   0.00000   0.00001   0.00000   0.00029
  73   48398.6    206.6   0.000000001   0.00000   0.00007   0.00002  -0.00002
  74   48468.2    206.3   0.046799419   0.31788  -0.30827   0.47207  -0.00002
  75   48485.4    206.2   0.078156437   0.53068   0.61620   0.38856   0.00002
  76   48538.9    206.0   0.000221091   0.00150   0.00003   0.00005  -0.03872
  77   48978.4    204.2   0.000813827   0.00547   0.00000  -0.00001  -0.07396
  78   49042.5    203.9   0.000000009   0.00000  -0.00000  -0.00000   0.00024
  79   49155.3    203.4   0.002751521   0.01843   0.00001  -0.00000  -0.13575
  80   49547.8    201.8   0.000144915   0.00096  -0.00000  -0.00000   0.03103
  81   49648.8    201.4   0.000000102   0.00000  -0.00000   0.00000   0.00082
  82   49979.1    200.1   0.016621006   0.10948   0.28470   0.16860   0.00000
  83   50080.3    199.7   0.000000190   0.00000  -0.00002   0.00000  -0.00112
  84   50233.2    199.1   0.000376663   0.00247   0.00001  -0.00002  -0.04968
  85   50368.9    198.5   0.000000013   0.00000   0.00000   0.00001  -0.00029
  86   50445.5    198.2   0.001591516   0.01039  -0.00000  -0.00000   0.10191
  87   50595.8    197.6   0.000000692   0.00000   0.00001  -0.00001  -0.00212
  88   50705.1    197.2   0.000069470   0.00045   0.00000   0.00001  -0.02124
  89   50909.2    196.4   0.025316497   0.16371  -0.20785   0.34715  -0.00002
  90   51028.8    196.0   0.000230717   0.00149  -0.00000   0.00000  -0.03858
  91   51360.3    194.7   0.000000078   0.00000   0.00006   0.00005   0.00070
  92   51613.5    193.7   0.124879358   0.79653   0.76705   0.45624   0.00002
  93   51634.2    193.7   0.000000042   0.00000  -0.00033  -0.00019   0.00036
  94   51741.4    193.3   0.000000000   0.00000  -0.00000   0.00000   0.00000
  95   51741.4    193.3   0.000000000   0.00000  -0.00000   0.00000   0.00000
  96   51741.4    193.3   0.000000000   0.00000   0.00000  -0.00000  -0.00000
  97   51741.4    193.3   0.000000000   0.00000   0.00000  -0.00000  -0.00000
  98   51838.9    192.9   0.001623258   0.01031  -0.00001  -0.00006   0.10153
  99   51943.2    192.5   0.168367662   1.06710   0.52603  -0.88904   0.00005
 100   51953.4    192.5   0.000000661   0.00000   0.00018  -0.00021   0.00203
 101   52139.7    191.8   0.000000000   0.00000  -0.00000   0.00000   0.00000
 102   52139.7    191.8   0.000000000   0.00000   0.00000   0.00000   0.00000
 103   52139.7    191.8   0.000000000   0.00000   0.00000   0.00000  -0.00000
 104   52139.7    191.8   0.000000000   0.00000   0.00000   0.00000  -0.00000
 105   52455.3    190.6   0.090629575   0.56880  -0.64599  -0.38922  -0.00002
 106   52624.9    190.0   0.000880957   0.00551  -0.00005  -0.00007  -0.07424
 107   52793.1    189.4   0.637750597   3.97694   1.71242   1.02204   0.00004
 108   52963.2    188.8   0.000254292   0.00158  -0.00001  -0.00002   0.03976
 109   53139.3    188.2   0.000000034   0.00000  -0.00006   0.00006   0.00045
 110   53192.4    188.0   0.276076054   1.70866  -0.67075   1.12194  -0.00007
 111   53219.0    187.9   0.000000001   0.00000   0.00003  -0.00006  -0.00002
 112   53513.9    186.9   0.000284276   0.00175   0.00000   0.00001   0.04182
 113   53568.2    186.7   0.000000004   0.00000  -0.00001   0.00002  -0.00016
 114   53739.8    186.1   0.000733089   0.00449  -0.00001  -0.00001   0.06701
 115   54315.1    184.1   0.183167561   1.11021  -0.53650   0.90685  -0.00005
 116   54692.2    182.8   0.002283554   0.01375   0.00001   0.00001  -0.11724
 117   54872.4    182.2   0.070237818   0.42140  -0.55731  -0.33286  -0.00001
 118   55086.5    181.5   0.151601534   0.90601   0.81736   0.48778   0.00002
 119   55223.3    181.1   0.000007791   0.00005   0.00000   0.00001   0.00681
 120   55279.7    180.9   0.001373145   0.00818  -0.00002  -0.00001   0.09043
 121   55362.5    180.6   0.000002577   0.00002   0.00003   0.00002   0.00391
 122   55422.7    180.4   0.234460691   1.39270   1.01384   0.60400   0.00003
 123   55762.9    179.3   0.097272241   0.57427  -0.39246   0.64827  -0.00004
 124   55893.7    178.9   0.174688990   1.02891  -0.52414   0.86844  -0.00005
 125   55963.8    178.7   0.000000086   0.00000  -0.00011   0.00005   0.00070
 126   55966.1    178.7   0.064395483   0.37880   0.52463   0.32181   0.00001
 127   56210.3    177.9   0.002085748   0.01222   0.00000  -0.00001  -0.11053
 128   56280.8    177.7   0.014483270   0.08472   0.15770  -0.24465   0.00001
 129   56452.3    177.1   0.030112421   0.17561   0.35821   0.21747   0.00000
 130   56566.3    176.8   0.058000301   0.33756   0.29655  -0.49962   0.00003
 131   56696.7    176.4   0.003217642   0.01868  -0.05611   0.12464  -0.00001
 132   56774.2    176.1   0.047825463   0.27732  -0.45463  -0.26576  -0.00001
 133   56951.6    175.6   0.244103782   1.41106   1.02242   0.60475   0.00002
 134   57065.7    175.2   0.003774675   0.02178  -0.00000   0.00000   0.14757
 135   57261.9    174.6   0.000827531   0.00476   0.00003   0.00002   0.06898
 136   57317.3    174.5   0.000026834   0.00015   0.00002  -0.00001   0.01241
 137   57449.3    174.1   0.117301806   0.67220   0.41591  -0.70655   0.00004
 138   57688.0    173.3   0.002679660   0.01529  -0.09831   0.07501  -0.00001
 139   57691.5    173.3   0.002726276   0.01556  -0.07048  -0.10291   0.00001
 140   57896.5    172.7   0.000362405   0.00206   0.00001  -0.00005  -0.04540
 141   58028.7    172.3   0.026423856   0.14991   0.19568  -0.33409   0.00002
 142   58143.8    172.0   0.003816172   0.02161  -0.12370  -0.07941  -0.00000
 143   58236.5    171.7   0.000114576   0.00065  -0.00003  -0.00008  -0.02545
 144   58356.7    171.4   0.000000536   0.00000  -0.00002   0.00004   0.00174
 145   58429.4    171.1   0.296558726   1.67092  -0.65586   1.11390  -0.00007
 146   58449.8    171.1   0.000017277   0.00010   0.00024  -0.00028  -0.00986
 147   58583.5    170.7   0.270532704   1.52027   1.06489   0.62152   0.00004
 148   58590.8    170.7   0.000000555   0.00000  -0.00057  -0.00036   0.00163
 149   58865.0    169.9   0.001833532   0.01025   0.08076   0.06108  -0.00001
 150   58932.0    169.7   0.000109089   0.00061  -0.00000  -0.00004   0.02469
 151   59017.2    169.4   0.161893813   0.90308  -0.48526   0.81707  -0.00005
 152   59328.4    168.6   0.005911670   0.03280  -0.00018   0.00025  -0.18112
 153   59341.1    168.5   0.038982805   0.21627   0.23773  -0.39969  -0.00010
 154   59407.5    168.3   0.000274223   0.00152  -0.00002   0.00008  -0.03898
 155   59478.2    168.1   0.010756945   0.05954   0.00004  -0.00002  -0.24401
 156   59542.4    167.9   0.000009711   0.00005   0.00002  -0.00001   0.00733
 157   59627.6    167.7   0.009918587   0.05476  -0.11715   0.20258  -0.00001
 158   59851.0    167.1   0.001232690   0.00678  -0.00004  -0.00005   0.08234
 159   59938.3    166.8   0.001780698   0.00978   0.00004   0.00004   0.09890
 160   59956.0    166.8   0.273536050   1.50196  -1.05236  -0.62808  -0.00002
 161   60166.5    166.2   0.251019871   1.37350  -0.60777   1.00206  -0.00006
 162   60230.2    166.0   0.001350728   0.00738  -0.00006  -0.00001   0.08592
 163   60369.7    165.6   0.001023432   0.00558   0.00006   0.00002  -0.07471
 164   60416.4    165.5   0.043667236   0.23794  -0.42028  -0.24760  -0.00003
 165   60497.8    165.3   0.001836916   0.01000  -0.00000   0.00004  -0.09998
 166   60508.1    165.3   0.001334129   0.00726   0.04896  -0.06973  -0.00005
 167   60561.1    165.1   0.000020050   0.00011  -0.00001  -0.00002   0.01044
 168   60769.6    164.6   0.001592193   0.00863   0.08004   0.04710   0.00000
 169   60884.2    164.2   0.029399768   0.15897  -0.33899  -0.20990  -0.00001
 170   60906.4    164.2   0.000030215   0.00016  -0.00005  -0.00004  -0.01278
 171   60983.1    164.0   0.087225659   0.47088   0.58915   0.35183   0.00002
 172   61190.8    163.4   0.000934954   0.00503   0.00000   0.00001  -0.07092
 173   61204.6    163.4   0.000690289   0.00371   0.00001   0.00001   0.06093
 174   61421.8    162.8   0.001256404   0.00673   0.00003  -0.00001  -0.08206
 175   61653.5    162.2   0.000001547   0.00001   0.00002  -0.00001   0.00287
 176   61689.6    162.1   0.000000000   0.00000   0.00000   0.00000  -0.00000
 177   61689.6    162.1   0.000000000   0.00000   0.00000   0.00000   0.00000
 178   61689.6    162.1   0.000000000   0.00000   0.00000   0.00000   0.00000
 179   61689.6    162.1   0.000000000   0.00000   0.00000   0.00000   0.00000
 180   61852.5    161.7   0.006329059   0.03369   0.08688  -0.16167   0.00001
 181   61893.9    161.6   0.000001769   0.00001  -0.00002   0.00007   0.00307
 182   61953.4    161.4   0.000027965   0.00015   0.00009  -0.00008   0.01219
 183   62029.2    161.2   0.476017658   2.52640   0.81963  -1.36184   0.00008
 184   62047.4    161.2   0.000000000   0.00000  -0.00000  -0.00000  -0.00000
 185   62047.4    161.2   0.000000000   0.00000   0.00000  -0.00000  -0.00000
 186   62047.4    161.2   0.000000000   0.00000  -0.00000   0.00000   0.00000
 187   62047.4    161.2   0.000000000   0.00000   0.00000  -0.00000  -0.00000
 188   62140.9    160.9   0.000000358   0.00000  -0.00010   0.00015  -0.00137
 189   62287.8    160.5   0.212700774   1.12420  -0.91393  -0.53752  -0.00003
 190   62346.6    160.4   0.534678013   2.82329   0.86066  -1.44311   0.00008
 191   62554.3    159.9   0.399474780   2.10236  -1.23598  -0.75810  -0.00003
 192   62613.7    159.7   0.089920939   0.47279  -0.37327   0.57746  -0.00003
 193   62974.1    158.8   0.002665131   0.01393  -0.04597   0.10872  -0.00001
 194   63044.4    158.6   0.000345185   0.00180  -0.03224  -0.02763  -0.00001
 195   63126.8    158.4   0.000188381   0.00098   0.01940   0.02462  -0.00001
 196   63178.7    158.3   0.005758113   0.03000   0.00002   0.00004   0.17322

Dispersion correction           -0.093817639
FINAL SINGLE POINT ENERGY      -916.207781377301

DIPOLE MOMENT
-------------
                                X             Y             Z
Electronic contribution:      3.90278      -6.57051       0.00038
Nuclear contribution   :     -4.40754       7.41861      -0.00043
                        -----------------------------------------
Total Dipole Moment    :     -0.50476       0.84810      -0.00005
                        -----------------------------------------
Magnitude (a.u.)       :      0.98694
Magnitude (Debye)      :      2.50860

Rotational constants in cm-1:     0.012267     0.011656     0.005977
Rotational constants in MHz :   367.756428   349.431266   179.179865

                             ****ORCA TERMINATED NORMALLY****
TOTAL RUN TIME: 0 days 5 hours 13 minutes 32 seconds 884 msec
