                         Program Version 5.0.4 -  RELEASE  -
|  1> !B3LYP 6-311+G** PAL4 D4
|  2> %TDDFT
|  3>   NROOTS 1000
|  4>   END
|  5>
|  6> * XYZ 0 1
|  7>   C   2.46738420969044     -2.81263795783172     -0.00000966049012
|  8>   C   1.29021523102800     -3.51201377298185     -0.00004058752843
|  9>   C   0.03545823654551     -2.84357180192689     -0.00011700654154
| 10>   C   -1.20218758884439     -3.54318722424976     -0.00015075042869
| 11>   C   -2.39648198994610     -2.87343733279545     -0.00022388485081
| 12>   C   -2.44483130317816     -1.45256921864444     -0.00026846552257
| 13>   C   -3.66953458511693     -0.73051865229528     -0.00034472511273
| 14>   C   -3.68661914160231      0.63861472840141     -0.00038730418280
| 15>   C   -2.48033157917503      1.39101004534826     -0.00035686907249
| 16>   C   -2.46738422792533      2.81263810716101     -0.00040016524558
| 17>   C   -1.29021516017741      3.51201377026014     -0.00036907952599
| 18>   C   -0.03545824433177      2.84357164855152     -0.00029288255853
| 19>   C   1.20218752109912      3.54318714702554     -0.00025868906408
| 20>   C   2.39648192584401      2.87343728473768     -0.00018556866102
| 21>   C   2.44483133698195      1.45256923480284     -0.00014000970252
| 22>   C   3.66953468525759      0.73051872239281     -0.00006428529983
| 23>   C   3.68661917516395     -0.63861465299814     -0.00002177884745
| 24>   C   2.48033158796062     -1.39100989330468     -0.00005249628054
| 25>   C   1.24283538920719     -0.69700184097772     -0.00012812520396
| 26>   C   1.22507788089312      0.72785817295726     -0.00017277212960
| 27>   C   -0.01778931269948      1.42488311059932     -0.00024838531844
| 28>   C   -1.24283548786547      0.69700179739327     -0.00028095765872
| 29>   C   -1.22507784798994     -0.72785823769859     -0.00023664253283
| 30>   C   0.01778926369246     -1.42488327113558     -0.00016058910124
| 31>   H   3.41550123147825     -3.34209676159282      0.00004910526765
| 32>   H   1.30169328790670     -4.59787475323892     -0.00000731993262
| 33>   H   -1.18632309082569     -4.62898226472676     -0.00011753033763
| 34>   H   -3.33114883046848     -3.42627830125467     -0.00024867043727
| 35>   H   -4.60200524090237     -1.28700819551871     -0.00036909708835
| 36>   H   -4.63271390284347      1.17161298430852     -0.00044608968339
| 37>   H   -3.41550124203130      3.34209675863002     -0.00045950330323
| 38>   H   -1.30169305214735      4.59787465380430     -0.00040321338515
| 39>   H   1.18632293779304      4.62898220026966     -0.00029320761784
| 40>   H   3.33114870064961      3.42627836580996     -0.00016042132367
| 41>   H   4.60200524894750      1.28700844288560     -0.00003923404308
| 42>   H   4.63271397793190     -1.17161304216713      0.00003686274508
| 43> **                         ****END OF INPUT****

CARTESIAN COORDINATES (ANGSTROEM)
---------------------------------
  C      2.467384   -2.812638   -0.000010
  C      1.290215   -3.512014   -0.000041
  C      0.035458   -2.843572   -0.000117
  C     -1.202188   -3.543187   -0.000151
  C     -2.396482   -2.873437   -0.000224
  C     -2.444831   -1.452569   -0.000268
  C     -3.669535   -0.730519   -0.000345
  C     -3.686619    0.638615   -0.000387
  C     -2.480332    1.391010   -0.000357
  C     -2.467384    2.812638   -0.000400
  C     -1.290215    3.512014   -0.000369
  C     -0.035458    2.843572   -0.000293
  C      1.202188    3.543187   -0.000259
  C      2.396482    2.873437   -0.000186
  C      2.444831    1.452569   -0.000140
  C      3.669535    0.730519   -0.000064
  C      3.686619   -0.638615   -0.000022
  C      2.480332   -1.391010   -0.000052
  C      1.242835   -0.697002   -0.000128
  C      1.225078    0.727858   -0.000173
  C     -0.017789    1.424883   -0.000248
  C     -1.242835    0.697002   -0.000281
  C     -1.225078   -0.727858   -0.000237
  C      0.017789   -1.424883   -0.000161
  H      3.415501   -3.342097    0.000049
  H      1.301693   -4.597875   -0.000007
  H     -1.186323   -4.628982   -0.000118
  H     -3.331149   -3.426278   -0.000249
  H     -4.602005   -1.287008   -0.000369
  H     -4.632714    1.171613   -0.000446
  H     -3.415501    3.342097   -0.000460
  H     -1.301693    4.597875   -0.000403
  H      1.186323    4.628982   -0.000293
  H      3.331149    3.426278   -0.000160
  H      4.602005    1.287008   -0.000039
  H      4.632714   -1.171613    0.000037

 Total Charge           Charge          ....    0
 Multiplicity           Mult            ....    1
 Number of Electrons    NEL             ....  156
 Basis Dimension        Dim             ....  600

ORBITAL ENERGIES
----------------

  NO   OCC          E(Eh)            E(eV)
   0   2.0000     -10.188731      -277.2495
   1   2.0000     -10.188564      -277.2449
   2   2.0000     -10.188562      -277.2449
   3   2.0000     -10.188255      -277.2365
   4   2.0000     -10.188253      -277.2365
   5   2.0000     -10.188171      -277.2342
   6   2.0000     -10.187931      -277.2277
   7   2.0000     -10.187915      -277.2273
   8   2.0000     -10.187911      -277.2272
   9   2.0000     -10.187785      -277.2237
  10   2.0000     -10.187782      -277.2236
  11   2.0000     -10.187647      -277.2200
  12   2.0000     -10.179856      -277.0080
  13   2.0000     -10.179853      -277.0079
  14   2.0000     -10.179847      -277.0077
  15   2.0000     -10.179840      -277.0075
  16   2.0000     -10.179835      -277.0074
  17   2.0000     -10.179825      -277.0071
  18   2.0000     -10.179200      -276.9901
  19   2.0000     -10.179196      -276.9900
  20   2.0000     -10.179190      -276.9898
  21   2.0000     -10.179186      -276.9897
  22   2.0000     -10.179182      -276.9896
  23   2.0000     -10.179182      -276.9896
  24   2.0000      -0.911201       -24.7950
  25   2.0000      -0.874554       -23.7978
  26   2.0000      -0.874552       -23.7978
  27   2.0000      -0.827532       -22.5183
  28   2.0000      -0.827529       -22.5182
  29   2.0000      -0.810956       -22.0672
  30   2.0000      -0.780116       -21.2280
  31   2.0000      -0.765362       -20.8266
  32   2.0000      -0.748334       -20.3632
  33   2.0000      -0.748329       -20.3631
  34   2.0000      -0.716419       -19.4948
  35   2.0000      -0.716418       -19.4947
  36   2.0000      -0.639816       -17.4103
  37   2.0000      -0.639810       -17.4101
  38   2.0000      -0.636398       -17.3173
  39   2.0000      -0.636395       -17.3172
  40   2.0000      -0.629099       -17.1186
  41   2.0000      -0.566727       -15.4214
  42   2.0000      -0.559650       -15.2289
  43   2.0000      -0.543266       -14.7830
  44   2.0000      -0.543263       -14.7829
  45   2.0000      -0.541047       -14.7226
  46   2.0000      -0.520855       -14.1732
  47   2.0000      -0.479613       -13.0509
  48   2.0000      -0.479606       -13.0507
  49   2.0000      -0.463400       -12.6097
  50   2.0000      -0.463388       -12.6094
  51   2.0000      -0.459781       -12.5113
  52   2.0000      -0.459764       -12.5108
  53   2.0000      -0.432076       -11.7574
  54   2.0000      -0.431255       -11.7351
  55   2.0000      -0.425820       -11.5871
  56   2.0000      -0.425802       -11.5867
  57   2.0000      -0.422571       -11.4988
  58   2.0000      -0.407075       -11.0771
  59   2.0000      -0.407072       -11.0770
  60   2.0000      -0.389007       -10.5854
  61   2.0000      -0.389006       -10.5854
  62   2.0000      -0.378992       -10.3129
  63   2.0000      -0.378516       -10.3000
  64   2.0000      -0.365610        -9.9487
  65   2.0000      -0.364728        -9.9247
  66   2.0000      -0.364716        -9.9244
  67   2.0000      -0.335158        -9.1201
  68   2.0000      -0.335157        -9.1201
  69   2.0000      -0.322131        -8.7656
  70   2.0000      -0.322110        -8.7651
  71   2.0000      -0.319987        -8.7073
  72   2.0000      -0.275158        -7.4874
  73   2.0000      -0.272380        -7.4118
  74   2.0000      -0.256181        -6.9710
  75   2.0000      -0.256178        -6.9710
  76   2.0000      -0.209083        -5.6894
  77   2.0000      -0.209081        -5.6894
  78   0.0000      -0.107517        -2.9257
  79   0.0000      -0.061867        -1.6835
  80   0.0000      -0.061864        -1.6834
  81   0.0000      -0.025772        -0.7013
  82   0.0000      -0.025767        -0.7011

MULLIKEN ATOMIC CHARGES
-----------------------
   0 C :   -0.283952
   1 C :   -0.245747
   2 C :    1.660753
   3 C :   -0.326699
   4 C :   -0.357075
   5 C :    1.857546
   6 C :   -0.065675
   7 C :   -0.491201
   8 C :    1.901069
   9 C :   -0.465964
  10 C :   -0.061043
  11 C :    1.094162
  12 C :   -0.187733
  13 C :   -0.373492
  14 C :    2.242544
  15 C :   -0.248204
  16 C :   -0.243474
  17 C :    1.539539
  18 C :   -0.839259
  19 C :   -2.501167
  20 C :   -0.482669
  21 C :   -1.706105
  22 C :   -1.439940
  23 C :   -1.457890
  24 H :    0.122465
  25 H :    0.123311
  26 H :    0.124969
  27 H :    0.122891
  28 H :    0.123333
  29 H :    0.124330
  30 H :    0.122191
  31 H :    0.123000
  32 H :    0.124588
  33 H :    0.123032
  34 H :    0.123768
  35 H :    0.123801
Sum of atomic charges:   -0.0000000

LOEWDIN ATOMIC CHARGES
----------------------
   0 C :   -0.037599
   1 C :   -0.037547
   2 C :   -0.066064
   3 C :   -0.037509
   4 C :   -0.037602
   5 C :   -0.066079
   6 C :   -0.037546
   7 C :   -0.037560
   8 C :   -0.066058
   9 C :   -0.037606
  10 C :   -0.037533
  11 C :   -0.066103
  12 C :   -0.037502
  13 C :   -0.037589
  14 C :   -0.066058
  15 C :   -0.037560
  16 C :   -0.037549
  17 C :   -0.066074
  18 C :   -0.020021
  19 C :   -0.020133
  20 C :   -0.020033
  21 C :   -0.020068
  22 C :   -0.020070
  23 C :   -0.020076
  24 H :    0.080625
  25 H :    0.080636
  26 H :    0.080606
  27 H :    0.080623
  28 H :    0.080652
  29 H :    0.080624
  30 H :    0.080623
  31 H :    0.080639
  32 H :    0.080608
  33 H :    0.080621
  34 H :    0.080649
  35 H :    0.080633

  Mayer bond orders larger than 0.100000
B(  0-C ,  1-C ) :   0.3604 B(  0-C ,  3-C ) :   0.1296 B(  0-C ,  4-C ) :   0.1904
B(  0-C ,  5-C ) :   0.1684 B(  0-C ,  6-C ) :  -0.1373 B(  0-C , 10-C ) :   0.1072
B(  0-C , 12-C ) :  -0.1266 B(  0-C , 15-C ) :   0.1272 B(  0-C , 16-C ) :  -0.9231
B(  0-C , 17-C ) :   0.1461 B(  0-C , 18-C ) :   1.2906 B(  0-C , 21-C ) :  -0.1077
B(  0-C , 22-C ) :  -0.2709 B(  0-C , 23-C ) :  -0.1575 B(  0-C , 24-H ) :   1.3631
B(  0-C , 35-H ) :  -0.1941 B(  1-C ,  3-C ) :  -0.9915 B(  1-C ,  4-C ) :   0.1256
B(  1-C ,  5-C ) :  -0.1308 B(  1-C ,  7-C ) :  -0.1660 B(  1-C , 11-C ) :  -0.1032
B(  1-C , 13-C ) :  -0.1371 B(  1-C , 14-C ) :   0.3116 B(  1-C , 15-C ) :   0.2578
B(  1-C , 16-C ) :   0.1747 B(  1-C , 17-C ) :  -0.1161 B(  1-C , 19-C ) :  -0.5153
B(  1-C , 20-C ) :   0.2839 B(  1-C , 22-C ) :   0.1411 B(  1-C , 23-C ) :   1.3820
B(  1-C , 25-H ) :   1.2902 B(  1-C , 26-H ) :  -0.2201 B(  2-C ,  3-C ) :  -0.6720
B(  2-C ,  5-C ) :  -0.2160 B(  2-C ,  6-C ) :  -0.2835 B(  2-C ,  7-C ) :   0.2834
B(  2-C ,  8-C ) :  -0.2065 B(  2-C ,  9-C ) :  -0.1553 B(  2-C , 11-C ) :   0.4469
B(  2-C , 15-C ) :   0.3955 B(  2-C , 16-C ) :  -0.1601 B(  2-C , 18-C ) :  -0.1019
B(  2-C , 19-C ) :   0.2375 B(  2-C , 20-C ) :  -1.0696 B(  2-C , 21-C ) :   0.9470
B(  2-C , 22-C ) :   0.1249 B(  2-C , 23-C ) :  -1.7344 B(  2-C , 25-H ) :  -0.4356
B(  2-C , 26-H ) :  -0.6831 B(  3-C ,  5-C ) :   0.3358 B(  3-C ,  6-C ) :   0.1837
B(  3-C ,  7-C ) :   0.2814 B(  3-C ,  8-C ) :   0.1473 B(  3-C ,  9-C ) :  -0.1804
B(  3-C , 13-C ) :   0.1148 B(  3-C , 14-C ) :  -0.3012 B(  3-C , 15-C ) :  -0.2985
B(  3-C , 17-C ) :  -0.1517 B(  3-C , 18-C ) :   0.2060 B(  3-C , 19-C ) :   0.3680
B(  3-C , 20-C ) :   0.1906 B(  3-C , 21-C ) :  -0.3327 B(  3-C , 22-C ) :  -0.3438
B(  3-C , 23-C ) :   1.8412 B(  3-C , 25-H ) :  -0.2018 B(  3-C , 26-H ) :   1.4393
B(  3-C , 27-H ) :  -0.1495 B(  4-C ,  5-C ) :  -0.4230 B(  4-C ,  6-C ) :  -0.8841
B(  4-C ,  7-C ) :   0.1607 B(  4-C ,  8-C ) :  -0.1497 B(  4-C , 15-C ) :   0.1079
B(  4-C , 16-C ) :  -0.1981 B(  4-C , 17-C ) :   0.2394 B(  4-C , 18-C ) :  -0.3572
B(  4-C , 19-C ) :   0.1913 B(  4-C , 21-C ) :   0.1975 B(  4-C , 22-C ) :   1.7402
B(  4-C , 26-H ) :  -0.1457 B(  4-C , 27-H ) :   1.3002 B(  4-C , 28-H ) :  -0.1167
B(  5-C ,  6-C ) :   0.1200 B(  5-C ,  8-C ) :  -0.6171 B(  5-C , 10-C ) :   0.1488
B(  5-C , 11-C ) :  -0.1434 B(  5-C , 13-C ) :  -0.2429 B(  5-C , 14-C ) :   1.1717
B(  5-C , 15-C ) :  -0.2597 B(  5-C , 17-C ) :  -0.4289 B(  5-C , 18-C ) :   1.7151
B(  5-C , 19-C ) :  -1.8233 B(  5-C , 20-C ) :   1.0116 B(  5-C , 22-C ) :  -2.8381
B(  5-C , 23-C ) :  -0.4281 B(  5-C , 26-H ) :   0.1581 B(  5-C , 27-H ) :  -0.5532
B(  5-C , 28-H ) :  -0.5657 B(  5-C , 29-H ) :   0.1340 B(  6-C ,  8-C ) :   0.3448
B(  6-C ,  9-C ) :   0.1206 B(  6-C , 10-C ) :   0.1405 B(  6-C , 11-C ) :   0.1563
B(  6-C , 12-C ) :  -0.1420 B(  6-C , 13-C ) :   0.1060 B(  6-C , 16-C ) :   0.1416
B(  6-C , 18-C ) :  -0.2812 B(  6-C , 19-C ) :  -0.1210 B(  6-C , 20-C ) :  -0.2761
B(  6-C , 21-C ) :  -0.2637 B(  6-C , 22-C ) :   1.3551 B(  6-C , 23-C ) :   0.3708
B(  6-C , 27-H ) :  -0.1486 B(  6-C , 28-H ) :   1.2870 B(  6-C , 29-H ) :  -0.1820
B(  7-C ,  8-C ) :  -0.8300 B(  7-C ,  9-C ) :  -0.8815 B(  7-C , 10-C ) :   0.1450
B(  7-C , 11-C ) :  -0.1254 B(  7-C , 13-C ) :  -0.3115 B(  7-C , 14-C ) :  -0.1467
B(  7-C , 15-C ) :   0.1408 B(  7-C , 17-C ) :  -0.1066 B(  7-C , 18-C ) :   0.4166
B(  7-C , 19-C ) :   0.3165 B(  7-C , 20-C ) :   0.1628 B(  7-C , 21-C ) :   1.7915
B(  7-C , 22-C ) :  -0.1125 B(  7-C , 23-C ) :  -0.5590 B(  7-C , 28-H ) :  -0.1265
B(  7-C , 29-H ) :   1.4799 B(  7-C , 30-H ) :  -0.2115 B(  8-C ,  9-C ) :  -0.4211
B(  8-C , 12-C ) :  -0.1984 B(  8-C , 13-C ) :   0.4250 B(  8-C , 14-C ) :  -0.2084
B(  8-C , 15-C ) :  -0.1404 B(  8-C , 16-C ) :   0.1165 B(  8-C , 17-C ) :   0.9954
B(  8-C , 18-C ) :  -1.8753 B(  8-C , 19-C ) :   0.4432 B(  8-C , 21-C ) :  -2.5410
B(  8-C , 22-C ) :   0.5963 B(  8-C , 23-C ) :   0.7973 B(  8-C , 29-H ) :  -0.6673
B(  8-C , 30-H ) :  -0.4236 B(  9-C , 10-C ) :   0.3264 B(  9-C , 11-C ) :  -0.1196
B(  9-C , 12-C ) :   0.1607 B(  9-C , 13-C ) :   0.2812 B(  9-C , 14-C ) :   0.2562
B(  9-C , 15-C ) :  -0.1673 B(  9-C , 18-C ) :   0.1968 B(  9-C , 19-C ) :  -0.3965
B(  9-C , 21-C ) :   1.7867 B(  9-C , 23-C ) :   0.2038 B(  9-C , 29-H ) :  -0.1953
B(  9-C , 30-H ) :   1.3557 B( 10-C , 11-C ) :   0.6042 B( 10-C , 12-C ) :  -1.0813
B( 10-C , 13-C ) :   0.1739 B( 10-C , 14-C ) :  -0.1361 B( 10-C , 19-C ) :   0.1963
B( 10-C , 20-C ) :   0.7366 B( 10-C , 21-C ) :  -0.1911 B( 10-C , 22-C ) :  -0.2636
B( 10-C , 31-H ) :   1.3064 B( 10-C , 32-H ) :  -0.2452 B( 11-C , 13-C ) :   0.2814
B( 11-C , 14-C ) :  -0.4752 B( 11-C , 15-C ) :  -0.1937 B( 11-C , 16-C ) :   0.1040
B( 11-C , 17-C ) :  -0.2166 B( 11-C , 18-C ) :   0.9993 B( 11-C , 19-C ) :   0.3125
B( 11-C , 20-C ) :  -0.2384 B( 11-C , 21-C ) :  -0.1184 B( 11-C , 22-C ) :   0.6860
B( 11-C , 23-C ) :  -0.7641 B( 11-C , 31-H ) :  -0.4325 B( 11-C , 32-H ) :  -0.6305
B( 11-C , 33-H ) :   0.1006 B( 12-C , 14-C ) :   0.2976 B( 12-C , 15-C ) :   0.1748
B( 12-C , 16-C ) :   0.1785 B( 12-C , 18-C ) :  -0.1804 B( 12-C , 19-C ) :  -0.2879
B( 12-C , 20-C ) :   0.9916 B( 12-C , 21-C ) :   0.3851 B( 12-C , 31-H ) :  -0.2012
B( 12-C , 32-H ) :   1.4339 B( 12-C , 33-H ) :  -0.1495 B( 13-C , 14-C ) :  -0.8485
B( 13-C , 15-C ) :  -0.9826 B( 13-C , 16-C ) :   0.1584 B( 13-C , 17-C ) :  -0.1202
B( 13-C , 18-C ) :   0.1085 B( 13-C , 19-C ) :   2.2383 B( 13-C , 20-C ) :  -0.3079
B( 13-C , 21-C ) :  -0.5738 B( 13-C , 22-C ) :   0.6288 B( 13-C , 32-H ) :  -0.1336
B( 13-C , 33-H ) :   1.3048 B( 13-C , 34-H ) :  -0.1389 B( 14-C , 15-C ) :  -0.5333
B( 14-C , 16-C ) :   0.2424 B( 14-C , 17-C ) :  -0.6681 B( 14-C , 18-C ) :   0.3475
B( 14-C , 19-C ) :  -4.5648 B( 14-C , 21-C ) :   1.2192 B( 14-C , 22-C ) :  -2.2254
B( 14-C , 23-C ) :   0.6966 B( 14-C , 32-H ) :   0.1355 B( 14-C , 33-H ) :  -0.5572
B( 14-C , 34-H ) :  -0.5566 B( 14-C , 35-H ) :   0.1098 B( 15-C , 17-C ) :   0.3647
B( 15-C , 18-C ) :  -0.2766 B( 15-C , 19-C ) :   2.0335 B( 15-C , 20-C ) :   0.1954
B( 15-C , 22-C ) :   0.4054 B( 15-C , 23-C ) :  -0.5344 B( 15-C , 33-H ) :  -0.1553
B( 15-C , 34-H ) :   1.2961 B( 15-C , 35-H ) :  -0.1518 B( 16-C , 18-C ) :   1.0896
B( 16-C , 19-C ) :  -0.3186 B( 16-C , 20-C ) :  -0.2491 B( 16-C , 21-C ) :  -0.1390
B( 16-C , 23-C ) :   0.3198 B( 16-C , 24-H ) :  -0.2042 B( 16-C , 34-H ) :  -0.1405
B( 16-C , 35-H ) :   1.4165 B( 17-C , 18-C ) :  -1.3140 B( 17-C , 19-C ) :   0.3766
B( 17-C , 20-C ) :   0.9689 B( 17-C , 21-C ) :  -1.7267 B( 17-C , 22-C ) :   1.0624
B( 17-C , 23-C ) :  -0.2836 B( 17-C , 24-H ) :  -0.4391 B( 17-C , 35-H ) :  -0.5986
B( 18-C , 19-C ) :   2.3354 B( 18-C , 20-C ) :  -2.2179 B( 18-C , 21-C ) :   3.3998
B( 18-C , 22-C ) :  -2.5860 B( 18-C , 23-C ) :   2.8851 B( 18-C , 24-H ) :   0.3683
B( 18-C , 34-H ) :  -0.1327 B( 18-C , 35-H ) :   0.5679 B( 19-C , 20-C ) :   2.6089
B( 19-C , 21-C ) :  -1.5231 B( 19-C , 22-C ) :   3.1349 B( 19-C , 23-C ) :  -1.1159
B( 19-C , 32-H ) :  -0.2058 B( 19-C , 33-H ) :   0.5936 B( 19-C , 34-H ) :   0.5679
B( 19-C , 35-H ) :  -0.1678 B( 20-C , 21-C ) :   2.5524 B( 20-C , 22-C ) :  -1.7630
B( 20-C , 23-C ) :   1.9589 B( 20-C , 31-H ) :   0.3940 B( 20-C , 32-H ) :   0.6401
B( 20-C , 33-H ) :  -0.1402 B( 21-C , 22-C ) :   2.3147 B( 21-C , 23-C ) :  -1.8224
B( 21-C , 28-H ) :  -0.1190 B( 21-C , 29-H ) :   0.6077 B( 21-C , 30-H ) :   0.3554
B( 22-C , 23-C ) :   3.1183 B( 22-C , 26-H ) :  -0.2201 B( 22-C , 27-H ) :   0.5820
B( 22-C , 28-H ) :   0.5450 B( 22-C , 29-H ) :  -0.1912 B( 23-C , 25-H ) :   0.4129
B( 23-C , 26-H ) :   0.6757 B( 23-C , 27-H ) :  -0.1357

-----------------------------------------------------------------------------
         ABSORPTION SPECTRUM VIA TRANSITION ELECTRIC DIPOLE MOMENTS
-----------------------------------------------------------------------------
State   Energy    Wavelength  fosc         T2        TX        TY        TZ
        (cm-1)      (nm)                 (au**2)    (au)      (au)      (au)
-----------------------------------------------------------------------------
   1   18550.0    539.1   0.000011836   0.00021  -0.00002   0.00000  -0.01449
   2   19440.7    514.4   0.000142549   0.00241  -0.00001   0.00000  -0.04913
   3   25972.8    385.0   0.000000001   0.00000  -0.00008  -0.00006   0.00000
   4   28148.2    355.3   0.000000086   0.00000   0.00009  -0.00100   0.00000
   5   28274.9    353.7   0.000000143   0.00000  -0.00001  -0.00002   0.00129
   6   29846.3    335.0   0.000000255   0.00000   0.00002   0.00001  -0.00168
   7   33022.9    302.8   0.000003805   0.00004   0.00508   0.00348  -0.00002
   8   33196.9    301.2   0.000000214   0.00000  -0.00013   0.00005   0.00145
   9   33306.8    300.2   0.000000157   0.00000  -0.00017  -0.00026   0.00121
  10   34285.6    291.7   0.000000000   0.00000  -0.00003  -0.00006  -0.00000
  11   34287.4    291.7   0.000000000   0.00000  -0.00005  -0.00004  -0.00000
  12   34347.0    291.1   0.000000000   0.00000   0.00005   0.00001   0.00000
  13   35002.8    285.7   0.851402924   8.00770   0.50988  -2.78347   0.00011
  14   35003.0    285.7   0.850860406   8.00255  -2.78252  -0.51004  -0.00011
  15   35191.4    284.2   0.000000006   0.00000   0.00017  -0.00016  -0.00000
  16   36892.3    271.1   0.000000000   0.00000  -0.00001  -0.00004   0.00000
  17   37708.5    265.2   0.000000000   0.00000   0.00002   0.00000   0.00000
  18   37709.6    265.2   0.000000000   0.00000   0.00000  -0.00000  -0.00000
  19   39042.8    256.1   0.000000000   0.00000   0.00001   0.00002   0.00000
  20   39044.5    256.1   0.000000000   0.00000   0.00001   0.00000   0.00000
  21   41734.8    239.6   0.000000000   0.00000  -0.00000  -0.00000  -0.00000
  22   41894.9    238.7   0.000000000   0.00000  -0.00000   0.00000   0.00001
  23   41895.9    238.7   0.000000155   0.00000   0.00000  -0.00000   0.00110
  24   42033.0    237.9   0.000000000   0.00000   0.00000   0.00000   0.00000
  25   42034.1    237.9   0.000000000   0.00000  -0.00001   0.00001  -0.00000
  26   43071.6    232.2   0.000000623   0.00000   0.00001   0.00001   0.00218
  27   43163.2    231.7   0.000000003   0.00000   0.00001   0.00000   0.00016
  28   43444.2    230.2   0.000000003   0.00000   0.00000   0.00000   0.00015
  29   43446.9    230.2   0.000000029   0.00000   0.00000   0.00000  -0.00047
  30   43488.1    229.9   0.000000003   0.00000  -0.00001  -0.00014   0.00000
  31   43559.3    229.6   0.000000000   0.00000   0.00000  -0.00001   0.00000
  32   43560.1    229.6   0.000000000   0.00000   0.00000   0.00000   0.00000
  33   43764.9    228.5   0.000000015   0.00000   0.00000   0.00001  -0.00034
  34   45377.1    220.4   0.000018977   0.00014  -0.00755   0.00898   0.00000
  35   45887.9    217.9   0.000000000   0.00000  -0.00000   0.00000  -0.00000
  36   45887.9    217.9   0.000000000   0.00000  -0.00000   0.00000  -0.00000
  37   45887.9    217.9   0.000000000   0.00000   0.00000   0.00000  -0.00000
  38   45887.9    217.9   0.000000000   0.00000   0.00000  -0.00000   0.00000
  39   45887.9    217.9   0.000000000   0.00000   0.00000  -0.00000  -0.00000
  40   45887.9    217.9   0.000000000   0.00000  -0.00000  -0.00000  -0.00000
  41   45888.4    217.9   0.000000000   0.00000  -0.00000  -0.00000  -0.00000
  42   45888.4    217.9   0.000000000   0.00000  -0.00000   0.00000   0.00000
  43   45888.4    217.9   0.000000000   0.00000  -0.00000  -0.00000   0.00000
  44   45888.4    217.9   0.000000000   0.00000  -0.00000   0.00000   0.00000
  45   45888.4    217.9   0.000000000   0.00000   0.00000  -0.00000   0.00000
  46   45888.4    217.9   0.000000000   0.00000  -0.00000  -0.00000   0.00000
  47   46162.5    216.6   0.010440260   0.07446   0.00001  -0.00000  -0.27287
  48   46209.8    216.4   0.000006138   0.00004   0.00001   0.00000  -0.00661
  49   46225.3    216.3   0.000412466   0.00294   0.00000  -0.00000  -0.05420
  50   46258.7    216.2   0.000037584   0.00027  -0.00000   0.00000   0.01635
  51   46409.0    215.5   0.000011084   0.00008   0.00001  -0.00000  -0.00887
  52   46660.5    214.3   0.000002368   0.00002   0.00032  -0.00407   0.00000
  53   46985.6    212.8   0.001313843   0.00921  -0.00745  -0.09566   0.00001
  54   46989.6    212.8   0.001294755   0.00907  -0.09489   0.00823   0.00004
  55   46996.4    212.8   0.000057002   0.00040  -0.00019   0.00000  -0.01998
  56   47360.3    211.1   0.000000060   0.00000  -0.00000  -0.00000   0.00065
  57   47397.8    211.0   0.000000051   0.00000  -0.00000  -0.00000   0.00059
  58   48420.8    206.5   0.172013151   1.16951   1.08112  -0.02633   0.00004
  59   48424.8    206.5   0.173601176   1.18021   0.02662   1.08605  -0.00003
  60   49118.7    203.6   0.000001283   0.00001  -0.00038   0.00291   0.00007
  61   49434.3    202.3   0.042340082   0.28197   0.50888  -0.15169   0.00003
  62   49435.4    202.3   0.042321429   0.28184  -0.15127  -0.50888   0.00001
  63   49587.7    201.7   0.000000261   0.00000  -0.00003   0.00005  -0.00132
  64   49602.0    201.6   0.000000435   0.00000  -0.00000  -0.00000   0.00170
  65   49664.4    201.4   0.000000000   0.00000   0.00001   0.00004   0.00000
  66   49667.1    201.3   0.000000827   0.00001  -0.00005  -0.00002  -0.00234
  67   49670.9    201.3   0.000011511   0.00008   0.00005   0.00000  -0.00873
  68   49676.9    201.3   0.000000005   0.00000  -0.00007  -0.00016  -0.00001
  69   49769.5    200.9   0.000000000   0.00000  -0.00001   0.00000  -0.00003
  70   50005.0    200.0   0.000000002   0.00000   0.00000  -0.00000  -0.00010
  71   50037.5    199.9   0.000000072   0.00000   0.00000   0.00003  -0.00069
  72   50037.6    199.8   0.000000598   0.00000   0.00000   0.00002  -0.00198
  73   50226.0    199.1   0.004275327   0.02802  -0.16491   0.02880  -0.00002
  74   50227.7    199.1   0.004408195   0.02889  -0.02896  -0.16749   0.00001
  75   51219.4    195.2   0.040256764   0.25875   0.50788   0.02836   0.00002
  76   51261.0    195.1   0.274050816   1.76003  -0.26637   1.29964  -0.00004
  77   51267.2    195.1   0.264096302   1.69589   1.25791   0.33699   0.00005
  78   51282.2    195.0   0.036997766   0.23751   0.21268  -0.43850   0.00006
  79   52071.8    192.0   0.000013176   0.00008  -0.00057  -0.00911  -0.00000
  80   52349.8    191.0   0.000000040   0.00000  -0.00004   0.00004  -0.00050
  81   52350.8    191.0   0.000000559   0.00000   0.00001   0.00003  -0.00187
  82   52728.5    189.7   1.207180951   7.53707   0.22799   2.73589  -0.00003
  83   52734.2    189.6   1.204831538   7.52158   2.73310  -0.22745   0.00010
  84   53133.7    188.2   0.018442132   0.11427  -0.00017   0.00039  -0.33803
  85   53208.7    187.9   0.002940558   0.01819   0.00008  -0.00009   0.13488
  86   53407.9    187.2   0.000000002   0.00000   0.00009   0.00003  -0.00005
  87   53423.2    187.2   0.000000006   0.00000   0.00001  -0.00018   0.00007
  88   53445.9    187.1   0.000004531   0.00003   0.00528  -0.00003  -0.00002
  89   53683.2    186.3   0.000099505   0.00061   0.00235   0.02383   0.00608
  90   53689.7    186.3   0.022743526   0.13946  -0.00004  -0.00045   0.37344
  91   53857.5    185.7   0.138151126   0.84447  -0.90851  -0.13812  -0.00003
  92   53860.6    185.7   0.139652621   0.85360  -0.13748   0.91362   0.00000
  93   53960.8    185.3   0.000055424   0.00034   0.00225  -0.01825  -0.00000
  94   53981.7    185.2   0.000006256   0.00004   0.00008   0.00006   0.00618
  95   53983.7    185.2   0.000005338   0.00003  -0.00006   0.00010   0.00570
  96   54202.9    184.5   0.000003368   0.00002   0.00000  -0.00003   0.00452
  97   54264.3    184.3   0.000000465   0.00000   0.00003  -0.00002  -0.00168
  98   54273.5    184.3   0.000000731   0.00000  -0.00001  -0.00002  -0.00211
  99   54422.4    183.7   0.000000083   0.00000  -0.00004  -0.00001   0.00071
 100   54470.6    183.6   0.000000971   0.00001   0.00000  -0.00001   0.00242
 101   55067.3    181.6   0.100707483   0.60207  -0.01658  -0.77575   0.00002
 102   55069.1    181.6   0.100006213   0.59785   0.77302  -0.01710   0.00004
 103   55517.2    180.1   0.000041864   0.00025   0.00009  -0.00013  -0.01576
 104   55557.8    180.0   0.006466522   0.03832  -0.00014  -0.00009  -0.19575
 105   55999.7    178.6   0.000000155   0.00000   0.00012  -0.00006  -0.00095
 106   56007.4    178.5   0.000009159   0.00005   0.00714   0.00167  -0.00003
 107   56010.0    178.5   0.000050802   0.00030   0.01675  -0.00425   0.00010
 108   56156.7    178.1   0.000000021   0.00000  -0.00008   0.00002   0.00034
 109   56224.6    177.9   0.000000000   0.00000   0.00000  -0.00000  -0.00000
 110   56224.6    177.9   0.000000000   0.00000  -0.00000   0.00000  -0.00000
 111   56224.6    177.9   0.000000000   0.00000  -0.00000   0.00000   0.00000
 112   56224.6    177.9   0.000000000   0.00000  -0.00000   0.00000   0.00000
 113   56224.6    177.9   0.000000000   0.00000  -0.00000   0.00000  -0.00000
 114   56224.6    177.9   0.000000000   0.00000   0.00000  -0.00000   0.00000
 115   56225.2    177.9   0.000000000   0.00000  -0.00000  -0.00000   0.00000
 116   56225.2    177.9   0.000000000   0.00000   0.00000   0.00000   0.00000
 117   56225.2    177.9   0.000000000   0.00000   0.00000   0.00000   0.00000
 118   56225.2    177.9   0.000000000   0.00000  -0.00000  -0.00000   0.00000
 119   56225.2    177.9   0.000000000   0.00000  -0.00000  -0.00000  -0.00000
 120   56225.2    177.9   0.000000000   0.00000   0.00000   0.00000  -0.00000
 121   56800.2    176.1   0.000000110   0.00000  -0.00015   0.00001  -0.00078
 122   56805.5    176.0   0.000000631   0.00000   0.00004  -0.00002  -0.00191
 123   56844.0    175.9   0.003332574   0.01930  -0.00018  -0.00012   0.13893
 124   56859.9    175.9   0.000000012   0.00000   0.00001  -0.00024   0.00012
 125   56894.8    175.8   0.000000032   0.00000  -0.00011  -0.00029  -0.00030
 126   56915.2    175.7   0.000001960   0.00001  -0.00016   0.00017  -0.00336
 127   56915.3    175.7   0.000000036   0.00000  -0.00040   0.00021  -0.00007
 128   56966.1    175.5   1.702859521   9.84097  -3.09706   0.49919  -0.00014
 129   56969.0    175.5   1.688094847   9.75515  -0.50592  -3.08208   0.00006
 130   57202.4    174.8   0.000000001   0.00000  -0.00002  -0.00006  -0.00005
 131   57322.4    174.5   0.000000182   0.00000   0.00004   0.00009  -0.00102
 132   57365.4    174.3   0.000000041   0.00000   0.00001  -0.00004   0.00048
 133   57433.9    174.1   0.000083166   0.00048  -0.00073   0.02182  -0.00000
 134   57526.7    173.8   0.000000352   0.00000   0.00001  -0.00000   0.00142
 135   57536.7    173.8   0.000000062   0.00000  -0.00001  -0.00000  -0.00059
 136   57578.5    173.7   0.000000019   0.00000   0.00022  -0.00025  -0.00000
 137   57964.1    172.5   0.003903492   0.02217  -0.08719   0.12070  -0.00002
 138   58059.7    172.2   0.000000024   0.00000   0.00032  -0.00019   0.00000
 139   58086.7    172.2   0.000000013   0.00000   0.00014  -0.00024   0.00002
 140   58089.8    172.1   0.000001179   0.00001   0.00009  -0.00011   0.00258
 141   58094.7    172.1   0.000000056   0.00000   0.00033  -0.00045   0.00000
 142   58100.4    172.1   0.000001062   0.00001  -0.00002   0.00002   0.00245
 143   58184.6    171.9   0.000000129   0.00000   0.00005  -0.00042   0.00074
 144   58506.8    170.9   0.000000787   0.00000   0.00198  -0.00071  -0.00000
 145   58819.5    170.0   0.000000038   0.00000  -0.00000   0.00001  -0.00046
 146   58820.0    170.0   0.000000130   0.00000  -0.00001   0.00001   0.00085
 147   58860.5    169.9   0.000000917   0.00001  -0.00019   0.00003   0.00226
 148   59281.4    168.7   0.000000001   0.00000   0.00007  -0.00005   0.00000
 149   59283.8    168.7   0.000000007   0.00000  -0.00017   0.00011   0.00000
 150   59409.7    168.3   0.000001087   0.00001   0.00009  -0.00007   0.00245
 151   59410.5    168.3   0.000001507   0.00001   0.00001   0.00000  -0.00289
 152   59505.8    168.1   0.000131303   0.00073   0.02137  -0.01642   0.00000
 153   59543.8    167.9   0.000015565   0.00009  -0.00755   0.00539   0.00003
 154   59780.5    167.3   0.000000000   0.00000   0.00000  -0.00000  -0.00000
 155   59780.5    167.3   0.000000000   0.00000  -0.00000  -0.00000  -0.00000
 156   59780.5    167.3   0.000000000   0.00000  -0.00000  -0.00000  -0.00000
 157   59780.5    167.3   0.000000000   0.00000   0.00000  -0.00000   0.00000
 158   59780.5    167.3   0.000000000   0.00000  -0.00000  -0.00000   0.00000
 159   59780.5    167.3   0.000000000   0.00000  -0.00000  -0.00000  -0.00000
 160   59788.4    167.3   0.000000000   0.00000  -0.00001   0.00002   0.00001
 161   60072.3    166.5   0.000088761   0.00049   0.00000   0.00001   0.02206
 162   60221.9    166.1   0.000007683   0.00004  -0.00002   0.00002  -0.00648
 163   60234.1    166.0   0.000007840   0.00004   0.00003   0.00000   0.00655
 164   60251.0    166.0   0.000005466   0.00003  -0.00003   0.00002   0.00546
 165   60259.9    165.9   0.000000223   0.00000  -0.00002  -0.00005  -0.00110
 166   60263.4    165.9   0.000000596   0.00000   0.00002   0.00001  -0.00180
 167   60269.0    165.9   0.000001330   0.00001  -0.00005  -0.00001   0.00270
 168   60280.5    165.9   0.000001536   0.00001   0.00004   0.00003  -0.00290
 169   60297.8    165.8   0.000000016   0.00000   0.00000  -0.00004  -0.00029
 170   60309.7    165.8   0.000001813   0.00001  -0.00002  -0.00006   0.00315
 171   60320.2    165.8   0.000000157   0.00000   0.00001   0.00001  -0.00092
 172   60390.3    165.6   0.000000000   0.00000   0.00000  -0.00000  -0.00000
 173   60390.3    165.6   0.000000000   0.00000   0.00000  -0.00000   0.00000
 174   60390.3    165.6   0.000000000   0.00000   0.00000  -0.00000  -0.00000
 175   60390.3    165.6   0.000000000   0.00000   0.00000  -0.00000  -0.00000
 176   60390.3    165.6   0.000000000   0.00000  -0.00000  -0.00000  -0.00000
 177   60390.3    165.6   0.000000000   0.00000   0.00000  -0.00000  -0.00000
 178   60504.3    165.3   0.000000016   0.00000   0.00001  -0.00029  -0.00000
 179   60824.0    164.4   0.000000019   0.00000   0.00002   0.00000   0.00032
 180   60861.4    164.3   0.000000244   0.00000   0.00000  -0.00002   0.00115
 181   60902.0    164.2   0.000000000   0.00000  -0.00000   0.00000   0.00000
 182   61129.5    163.6   0.000000000   0.00000  -0.00000  -0.00003   0.00000
 183   61133.8    163.6   0.000000000   0.00000  -0.00000   0.00000   0.00000
 184   61354.9    163.0   0.000000002   0.00000   0.00001  -0.00001  -0.00010
 185   61489.0    162.6   0.011591523   0.06206   0.04474   0.24507  -0.00000
 186   61490.2    162.6   0.010687967   0.05722  -0.23446   0.04745  -0.00001
 187   61500.6    162.6   0.000000010   0.00000   0.00002  -0.00002  -0.00022
 188   61502.6    162.6   0.000000005   0.00000  -0.00005  -0.00014   0.00005
 189   61848.5    161.7   0.000000000   0.00000   0.00001  -0.00001   0.00000
 190   61876.8    161.6   0.000000000   0.00000  -0.00001   0.00000   0.00001
 191   61887.2    161.6   0.000000000   0.00000   0.00002   0.00004   0.00000
 192   62441.9    160.1   0.000000000   0.00000   0.00001  -0.00002  -0.00000
 193   62447.4    160.1   0.000000000   0.00000  -0.00001  -0.00003  -0.00003
 194   62485.8    160.0   0.000045993   0.00024  -0.00001  -0.00000   0.01557
 195   62540.0    159.9   0.000000010   0.00000  -0.00003   0.00004  -0.00022
 196   62557.9    159.9   0.024113066   0.12690  -0.00003   0.00005   0.35622

Dispersion correction           -0.105135671
FINAL SINGLE POINT ENERGY      -921.545454592682

DIPOLE MOMENT
-------------
                                X             Y             Z
Electronic contribution:     -0.00002       0.00002       0.00001
Nuclear contribution   :      0.00000       0.00000      -0.00000
                        -----------------------------------------
Total Dipole Moment    :     -0.00002       0.00002       0.00000
                        -----------------------------------------
Magnitude (a.u.)       :      0.00003
Magnitude (Debye)      :      0.00008

Rotational constants in cm-1:     0.011153     0.011152     0.005576
Rotational constants in MHz :   334.354164   334.340145   167.173577

                             ****ORCA TERMINATED NORMALLY****
TOTAL RUN TIME: 0 days 7 hours 16 minutes 7 seconds 353 msec
