                         Program Version 5.0.4 -  RELEASE  -
|  1> !B3LYP 6-311+G**  D4
|  2>
|  3> %maxcore 5000
|  4> %pal
|  5> nprocs 7
|  6> end
|  7>
|  8> %TDDFT
|  9>   NROOTS 1000
| 10>   END
| 11>
| 12> %scf
| 13> stabperform true
| 14> STABDTol 1e-5
| 15> STABRTol 1e-5
| 16> end
| 17>
| 18> * XYZ 0 1
| 19>   C   -2.85804262620234      0.96205731055849     -0.00024781794534
| 20>   C   -3.38212974774615     -0.32542544390044     -0.00027950179387
| 21>   C   -2.57434054602811     -1.49220589878392     -0.00020944407824
| 22>   C   -1.20213496458839     -1.34019598603821     -0.00010756769321
| 23>   C   -0.70354425467009     -0.02915696163845     -0.00007980395732
| 24>   C   0.70354436430975     -0.02915702599973      0.00003872841576
| 25>   C   1.20213506912154     -1.34019600276180      0.00009674404448
| 26>   C   2.57434066856095     -1.49220593535948      0.00023080977270
| 27>   C   3.38212990707193     -0.32542550071222      0.00029684688193
| 28>   C   2.85804250406319      0.96205712403194      0.00023657563411
| 29>   C   1.45620697336320      1.14754235547777      0.00010298115728
| 30>   C   0.68728742458304      2.37021970199293      0.00003473863639
| 31>   C   -0.68728760345817      2.37021964661794     -0.00008087423019
| 32>   C   -1.45620716600416      1.14754224913620     -0.00014200931075
| 33>   C   0.00000000029020     -2.29501964228557     -0.00000437470101
| 34>   H   -3.52787943202686      1.81680914737772     -0.00030676672356
| 35>   H   -4.46079041348607     -0.44804017785465     -0.00035765271375
| 36>   H   -3.04788030149248     -2.46924005076700     -0.00023610333064
| 37>   H   3.04788036688112     -2.46924014341087      0.00028841698368
| 38>   H   4.46079064734493     -0.44804001440018      0.00040157447317
| 39>   H   3.52787939979912      1.81680888911365      0.00029441431687
| 40>   H   1.21505320581264      3.31966640097511      0.00007728905462
| 41>   H   -1.21505329375483      3.31966638841039     -0.00012584455256
| 42>   H   -0.00007476748188     -2.94902805869585      0.87870911292838
| 43>   H   0.00007458573792     -2.94901237108377     -0.87873047126893
| 44> **                         ****END OF INPUT****

CARTESIAN COORDINATES (ANGSTROEM)
---------------------------------
  C     -2.858043    0.962057   -0.000248
  C     -3.382130   -0.325425   -0.000280
  C     -2.574341   -1.492206   -0.000209
  C     -1.202135   -1.340196   -0.000108
  C     -0.703544   -0.029157   -0.000080
  C      0.703544   -0.029157    0.000039
  C      1.202135   -1.340196    0.000097
  C      2.574341   -1.492206    0.000231
  C      3.382130   -0.325426    0.000297
  C      2.858043    0.962057    0.000237
  C      1.456207    1.147542    0.000103
  C      0.687287    2.370220    0.000035
  C     -0.687288    2.370220   -0.000081
  C     -1.456207    1.147542   -0.000142
  C      0.000000   -2.295020   -0.000004
  H     -3.527879    1.816809   -0.000307
  H     -4.460790   -0.448040   -0.000358
  H     -3.047880   -2.469240   -0.000236
  H      3.047880   -2.469240    0.000288
  H      4.460791   -0.448040    0.000402
  H      3.527879    1.816809    0.000294
  H      1.215053    3.319666    0.000077
  H     -1.215053    3.319666   -0.000126
  H     -0.000075   -2.949028    0.878709
  H      0.000075   -2.949012   -0.878730

 Total Charge           Charge          ....    0
 Multiplicity           Mult            ....    1
 Number of Electrons    NEL             ....  100
 Basis Dimension        Dim             ....  390

ORBITAL ENERGIES
----------------

  NO   OCC          E(Eh)            E(eV)
   0   2.0000     -10.190819      -277.3063
   1   2.0000     -10.184400      -277.1316
   2   2.0000     -10.184393      -277.1314
   3   2.0000     -10.183245      -277.1002
   4   2.0000     -10.183237      -277.1000
   5   2.0000     -10.181529      -277.0535
   6   2.0000     -10.180906      -277.0365
   7   2.0000     -10.178154      -276.9617
   8   2.0000     -10.178152      -276.9616
   9   2.0000     -10.177076      -276.9323
  10   2.0000     -10.177073      -276.9322
  11   2.0000     -10.176314      -276.9116
  12   2.0000     -10.176313      -276.9115
  13   2.0000     -10.168602      -276.7017
  14   2.0000     -10.168106      -276.6882
  15   2.0000      -0.903981       -24.5986
  16   2.0000      -0.850037       -23.1307
  17   2.0000      -0.827270       -22.5112
  18   2.0000      -0.796042       -21.6614
  19   2.0000      -0.758543       -20.6410
  20   2.0000      -0.732369       -19.9288
  21   2.0000      -0.718300       -19.5459
  22   2.0000      -0.695658       -18.9298
  23   2.0000      -0.627182       -17.0665
  24   2.0000      -0.625299       -17.0152
  25   2.0000      -0.598831       -16.2950
  26   2.0000      -0.579925       -15.7806
  27   2.0000      -0.533518       -14.5178
  28   2.0000      -0.519565       -14.1381
  29   2.0000      -0.492950       -13.4138
  30   2.0000      -0.477778       -13.0010
  31   2.0000      -0.471928       -12.8418
  32   2.0000      -0.452285       -12.3073
  33   2.0000      -0.437635       -11.9087
  34   2.0000      -0.427533       -11.6338
  35   2.0000      -0.419667       -11.4197
  36   2.0000      -0.417330       -11.3561
  37   2.0000      -0.399573       -10.8729
  38   2.0000      -0.398894       -10.8545
  39   2.0000      -0.391918       -10.6646
  40   2.0000      -0.361806        -9.8453
  41   2.0000      -0.359442        -9.7809
  42   2.0000      -0.351098        -9.5539
  43   2.0000      -0.335138        -9.1196
  44   2.0000      -0.328486        -8.9386
  45   2.0000      -0.310778        -8.4567
  46   2.0000      -0.283262        -7.7080
  47   2.0000      -0.269937        -7.3454
  48   2.0000      -0.223903        -6.0927
  49   2.0000      -0.217623        -5.9218
  50   0.0000      -0.048195        -1.3115
  51   0.0000      -0.033431        -0.9097
  52   0.0000      -0.013915        -0.3786
  53   0.0000       0.005246         0.1428
  54   0.0000       0.011312         0.3078

MULLIKEN ATOMIC CHARGES
-----------------------
   0 C :   -0.407514
   1 C :    0.349561
   2 C :   -0.974773
   3 C :    1.373213
   4 C :   -1.972852
   5 C :   -2.062285
   6 C :    1.447680
   7 C :   -1.046823
   8 C :    0.380721
   9 C :   -0.468559
  10 C :    2.118020
  11 C :   -0.237431
  12 C :   -0.220547
  13 C :    2.080793
  14 C :   -1.758345
  15 H :    0.125532
  16 H :    0.123030
  17 H :    0.124553
  18 H :    0.124737
  19 H :    0.122829
  20 H :    0.125753
  21 H :    0.126624
  22 H :    0.126543
  23 H :    0.199768
  24 H :    0.199770
Sum of atomic charges:    0.0000000

LOEWDIN ATOMIC CHARGES
----------------------
   0 C :   -0.048058
   1 C :   -0.055150
   2 C :   -0.056704
   3 C :   -0.059870
   4 C :   -0.053181
   5 C :   -0.053183
   6 C :   -0.059866
   7 C :   -0.056705
   8 C :   -0.055147
   9 C :   -0.048062
  10 C :   -0.077543
  11 C :   -0.034057
  12 C :   -0.034056
  13 C :   -0.077546
  14 C :   -0.031475
  15 H :    0.078095
  16 H :    0.072447
  17 H :    0.076908
  18 H :    0.076907
  19 H :    0.072447
  20 H :    0.078093
  21 H :    0.079372
  22 H :    0.079373
  23 H :    0.093480
  24 H :    0.093482

  Mayer bond orders larger than 0.100000
B(  0-C ,  1-C ) :   0.6089 B(  0-C ,  2-C ) :   0.3513 B(  0-C ,  3-C ) :  -0.3381
B(  0-C ,  4-C ) :   1.6462 B(  0-C ,  5-C ) :   0.3491 B(  0-C , 11-C ) :   0.2063
B(  0-C , 12-C ) :  -1.7516 B(  0-C , 13-C ) :  -0.3570 B(  0-C , 15-H ) :   1.2906
B(  0-C , 16-H ) :   0.1833 B(  0-C , 22-H ) :  -0.2296 B(  1-C ,  2-C ) :   0.5500
B(  1-C ,  3-C ) :   0.3455 B(  1-C ,  4-C ) :  -0.1898 B(  1-C ,  5-C ) :  -1.0881
B(  1-C ,  6-C ) :   0.1992 B(  1-C , 12-C ) :   0.2174 B(  1-C , 13-C ) :   1.1650
B(  1-C , 14-C ) :   0.1311 B(  1-C , 15-H ) :  -0.1451 B(  1-C , 16-H ) :   0.8007
B(  1-C , 17-H ) :  -0.1145 B(  2-C ,  3-C ) :  -1.3969 B(  2-C ,  4-C ) :   1.6898
B(  2-C ,  5-C ) :  -0.9134 B(  2-C ,  7-C ) :   0.3004 B(  2-C , 10-C ) :  -0.5892
B(  2-C , 11-C ) :   0.1062 B(  2-C , 13-C ) :   0.6440 B(  2-C , 14-C ) :   0.3763
B(  2-C , 16-H ) :   0.1638 B(  2-C , 17-H ) :   1.4929 B(  3-C ,  4-C ) :   1.8761
B(  3-C ,  5-C ) :  -0.1345 B(  3-C ,  6-C ) :  -1.0149 B(  3-C ,  8-C ) :   0.2171
B(  3-C , 10-C ) :   0.9432 B(  3-C , 12-C ) :   0.5785 B(  3-C , 13-C ) :  -1.8400
B(  3-C , 14-C ) :  -1.1883 B(  3-C , 15-H ) :  -0.1007 B(  3-C , 16-H ) :  -0.2055
B(  3-C , 17-H ) :  -0.8001 B(  3-C , 23-H ) :  -0.1355 B(  3-C , 24-H ) :  -0.1362
B(  4-C ,  5-C ) :   4.0750 B(  4-C ,  6-C ) :  -0.3079 B(  4-C ,  7-C ) :  -0.7898
B(  4-C ,  8-C ) :  -1.1674 B(  4-C ,  9-C ) :   0.4579 B(  4-C , 10-C ) :  -0.1985
B(  4-C , 11-C ) :  -1.3864 B(  4-C , 12-C ) :   2.4425 B(  4-C , 13-C ) :   0.1994
B(  4-C , 14-C ) :  -0.1390 B(  4-C , 15-H ) :   0.7832 B(  4-C , 16-H ) :   0.2653
B(  4-C , 17-H ) :   0.5091 B(  4-C , 18-H ) :   0.1119 B(  4-C , 20-H ) :   0.1086
B(  4-C , 21-H ) :  -0.2174 B(  4-C , 22-H ) :   0.6109 B(  5-C ,  6-C ) :   2.0351
B(  5-C ,  7-C ) :   1.5833 B(  5-C ,  8-C ) :  -0.1317 B(  5-C ,  9-C ) :   1.5715
B(  5-C , 10-C ) :   0.3408 B(  5-C , 11-C ) :   2.5351 B(  5-C , 12-C ) :  -1.3042
B(  5-C , 13-C ) :  -0.2452 B(  5-C , 14-C ) :  -0.2584 B(  5-C , 15-H ) :   0.1061
B(  5-C , 17-H ) :   0.1025 B(  5-C , 18-H ) :   0.5107 B(  5-C , 19-H ) :   0.2884
B(  5-C , 20-H ) :   0.7969 B(  5-C , 21-H ) :   0.6190 B(  5-C , 22-H ) :  -0.2070
B(  6-C ,  7-C ) :  -1.5380 B(  6-C ,  8-C ) :   0.3830 B(  6-C ,  9-C ) :  -0.3841
B(  6-C , 10-C ) :  -1.8024 B(  6-C , 11-C ) :   0.6077 B(  6-C , 13-C ) :   0.8990
B(  6-C , 14-C ) :  -1.1927 B(  6-C , 18-H ) :  -0.8270 B(  6-C , 19-H ) :  -0.2488
B(  6-C , 20-H ) :  -0.1037 B(  6-C , 23-H ) :  -0.1360 B(  6-C , 24-H ) :  -0.1350
B(  7-C ,  8-C ) :   0.4854 B(  7-C ,  9-C ) :   0.4515 B(  7-C , 10-C ) :   0.5489
B(  7-C , 12-C ) :   0.1284 B(  7-C , 13-C ) :  -0.5483 B(  7-C , 14-C ) :   0.3943
B(  7-C , 18-H ) :   1.5249 B(  7-C , 19-H ) :   0.2001 B(  8-C ,  9-C ) :   0.5614
B(  8-C , 10-C ) :   1.1936 B(  8-C , 11-C ) :   0.2500 B(  8-C , 14-C ) :   0.1385
B(  8-C , 18-H ) :  -0.1199 B(  8-C , 19-H ) :   0.7740 B(  8-C , 20-H ) :  -0.1516
B(  9-C , 10-C ) :  -0.4270 B(  9-C , 11-C ) :  -1.8280 B(  9-C , 12-C ) :   0.2374
B(  9-C , 19-H ) :   0.2304 B(  9-C , 20-H ) :   1.3086 B(  9-C , 21-H ) :  -0.2382
B( 10-C , 11-C ) :  -0.7499 B( 10-C , 12-C ) :   0.2659 B( 10-C , 13-C ) :   0.1643
B( 10-C , 18-H ) :  -0.1855 B( 10-C , 19-H ) :  -0.2913 B( 10-C , 20-H ) :  -0.7057
B( 10-C , 21-H ) :  -0.5511 B( 10-C , 22-H ) :   0.1016 B( 11-C , 13-C ) :   0.2750
B( 11-C , 20-H ) :  -0.3352 B( 11-C , 21-H ) :   1.3396 B( 11-C , 22-H ) :  -0.1737
B( 12-C , 13-C ) :  -0.6624 B( 12-C , 15-H ) :  -0.3284 B( 12-C , 21-H ) :  -0.1810
B( 12-C , 22-H ) :   1.3210 B( 13-C , 15-H ) :  -0.6848 B( 13-C , 16-H ) :  -0.2475
B( 13-C , 17-H ) :  -0.1771 B( 13-C , 21-H ) :   0.1073 B( 13-C , 22-H ) :  -0.5421
B( 14-C , 17-H ) :  -0.1281 B( 14-C , 18-H ) :  -0.1317 B( 14-C , 23-H ) :   1.1850
B( 14-C , 24-H ) :   1.1847

-----------------------------------------------------------------------------
         ABSORPTION SPECTRUM VIA TRANSITION ELECTRIC DIPOLE MOMENTS
-----------------------------------------------------------------------------
State   Energy    Wavelength  fosc         T2        TX        TY        TZ
        (cm-1)      (nm)                 (au**2)    (au)      (au)      (au)
-----------------------------------------------------------------------------
   1   32124.8    311.3   0.001753633   0.01797  -0.00000   0.13406  -0.00000
   2   34463.0    290.2   0.087841441   0.83912   0.91603  -0.00000   0.00008
   3   39078.5    255.9   0.058849681   0.49577   0.00001   0.70411   0.00000
   4   39629.3    252.3   0.067072760   0.55719   0.74645  -0.00002   0.00006
   5   40358.1    247.8   0.099979774   0.81556   0.00001   0.90308  -0.00001
   6   42243.7    236.7   0.557621599   4.34563  -2.08462   0.00000  -0.00018
   7   43483.0    230.0   0.002300860   0.01742  -0.00001   0.00000   0.13198
   8   44783.5    223.3   0.000000028   0.00000  -0.00001   0.00000   0.00045
   9   45461.1    220.0   0.000000102   0.00000   0.00082  -0.00000   0.00024
  10   45470.5    219.9   0.239870544   1.73669  -1.31784   0.00000  -0.00011
  11   45673.5    218.9   0.000173787   0.00125   0.00000   0.00000   0.03539
  12   46423.5    215.4   0.013434784   0.09527  -0.00003   0.00000   0.30866
  13   47470.9    210.7   0.068819911   0.47727  -0.00002   0.69085  -0.00001
  14   47481.3    210.6   0.000000052   0.00000   0.00002   0.00017  -0.00057
  15   48074.7    208.0   0.463280730   3.17251  -1.78115   0.00001  -0.00015
  16   48123.0    207.8   0.106683878   0.72983  -0.00003  -0.85430   0.00001
  17   48573.3    205.9   0.001836490   0.01245   0.00001   0.00002  -0.11157
  18   49129.4    203.5   0.000000076   0.00000   0.00003  -0.00000  -0.00072
  19   49810.5    200.8   0.000000042   0.00000   0.00002   0.00000   0.00053
  20   50576.1    197.7   0.001196419   0.00779  -0.00002   0.00001   0.08825
  21   50707.7    197.2   0.000254599   0.00165   0.00002   0.00000  -0.04066
  22   51101.4    195.7   0.053375790   0.34386   0.58640   0.00000   0.00005
  23   51576.9    193.9   0.000032086   0.00020  -0.00000  -0.01431  -0.00000
  24   52011.8    192.3   0.000000002   0.00000   0.00002  -0.00000  -0.00010
  25   52328.3    191.1   0.427165529   2.68742  -1.63933   0.00000  -0.00014
  26   52914.1    189.0   0.021826399   0.13580   0.36850  -0.00001   0.00003
  27   53010.0    188.6   0.030023271   0.18646   0.00001   0.43181   0.00000
  28   53050.8    188.5   0.000456808   0.00283   0.00000  -0.00003   0.05324
  29   53515.8    186.9   0.259635603   1.59719  -1.26380  -0.00000  -0.00010
  30   53635.5    186.4   0.000290468   0.00178   0.00002   0.00000  -0.04222
  31   53664.0    186.3   0.012267488   0.07526  -0.00000   0.00000   0.27433
  32   54208.1    184.5   0.000000037   0.00000  -0.00000  -0.00000   0.00047
  33   54925.5    182.1   0.000014791   0.00009  -0.00001  -0.00000  -0.00942
  34   55007.1    181.8   0.006564225   0.03929  -0.00001   0.00001   0.19821
  35   55140.6    181.4   0.004809783   0.02872  -0.00001  -0.16946   0.00001
  36   55227.3    181.1   0.000001062   0.00001   0.00000  -0.00000  -0.00252
  37   55779.9    179.3   0.258974346   1.52846   0.00002   1.23631  -0.00000
  38   56067.0    178.4   0.000000000   0.00000  -0.00003  -0.00001  -0.00002
  39   56835.8    175.9   0.000000183   0.00000  -0.00000   0.00003   0.00103
  40   57350.1    174.4   0.074711333   0.42887  -0.00001  -0.65488   0.00000
  41   57453.2    174.1   0.000000039   0.00000   0.00000  -0.00003   0.00047
  42   57537.1    173.8   0.000711436   0.00407  -0.00001   0.00001   0.06380
  43   57995.7    172.4   0.008925249   0.05066   0.22509   0.00001   0.00002
  44   58090.5    172.1   0.025309751   0.14344   0.00003  -0.00000  -0.37873
  45   58219.1    171.8   0.000000015   0.00000   0.00006  -0.00000  -0.00029
  46   58258.6    171.6   0.000000324   0.00000   0.00135   0.00000   0.00000
  47   58778.2    170.1   0.000000329   0.00000  -0.00001   0.00000   0.00136
  48   59032.3    169.4   0.006366333   0.03550  -0.00001  -0.18842   0.00001
  49   59151.7    169.1   0.000371706   0.00207  -0.00001  -0.00002   0.04548
  50   59265.3    168.7   0.000019564   0.00011   0.00000  -0.00003   0.01042
  51   59819.2    167.2   0.031030734   0.17078   0.41325  -0.00001   0.00003
  52   59875.9    167.0   0.000000098   0.00000   0.00003   0.00001   0.00073
  53   59962.5    166.8   0.003059061   0.01680  -0.00001  -0.00006   0.12960
  54   60004.1    166.7   0.000015392   0.00008  -0.00001  -0.00003  -0.00919
  55   60250.8    166.0   0.022036036   0.12041   0.00002  -0.34699   0.00000
  56   60260.5    165.9   0.000000157   0.00000  -0.00001   0.00009   0.00092
  57   60378.0    165.6   0.013034071   0.07107  -0.00002   0.00001   0.26659
  58   60627.1    164.9   0.000008898   0.00005   0.00003   0.00002  -0.00695
  59   60733.1    164.7   0.000192722   0.00104   0.00002  -0.00014  -0.03232
  60   60815.4    164.4   0.006455896   0.03495   0.00002   0.00012  -0.18694
  61   61050.8    163.8   0.003895560   0.02101   0.00001  -0.00383  -0.14489
  62   61068.1    163.8   0.935651121   5.04400  -0.00001  -2.24589   0.00026
  63   61126.7    163.6   0.000405972   0.00219   0.00000  -0.00064  -0.04676
  64   61277.8    163.2   0.000000000   0.00000  -0.00001  -0.00001   0.00001
  65   62146.5    160.9   0.000000033   0.00000  -0.00001  -0.00001   0.00042
  66   62440.4    160.2   0.033291077   0.17552  -0.00001  -0.41896   0.00000
  67   62474.5    160.1   0.000497354   0.00262  -0.00000  -0.00001   0.05119
  68   62726.8    159.4   0.000000187   0.00000   0.00004  -0.00000   0.00099
  69   62940.6    158.9   0.090091146   0.47122  -0.68646   0.00004  -0.00006
  70   62958.3    158.8   0.000554682   0.00290  -0.00003  -0.00000   0.05386
  71   63044.8    158.6   0.000000001   0.00000   0.00001  -0.00002  -0.00008
  72   63529.4    157.4   0.139640897   0.72362  -0.00003   0.85066   0.00001
  73   63781.6    156.8   0.000000021   0.00000   0.00033   0.00001   0.00003
  74   63795.6    156.8   0.028744482   0.14833   0.38514   0.00003   0.00003
  75   64311.5    155.5   0.000338070   0.00173   0.00001  -0.04160  -0.00001
  76   64415.5    155.2   0.000047586   0.00024  -0.00001  -0.00001   0.01559
  77   64623.0    154.7   0.032445562   0.16529   0.40656   0.00002   0.00003
  78   65080.6    153.7   0.000074625   0.00038  -0.00000   0.00003   0.01943
  79   65255.7    153.2   0.000002331   0.00001   0.00001   0.00000   0.00343
  80   65296.5    153.1   0.000069592   0.00035  -0.00000  -0.00000   0.01873
  81   65350.7    153.0   0.000456296   0.00230   0.00001  -0.04794   0.00000
  82   66010.4    151.5   0.000000158   0.00000  -0.00002   0.00000  -0.00089
  83   66156.2    151.2   0.009800998   0.04877  -0.00002  -0.00004   0.22085
  84   66219.3    151.0   0.009606335   0.04776   0.00001  -0.21854   0.00001
  85   66339.6    150.7   0.010680693   0.05300   0.00002  -0.00000  -0.23022
  86   66477.8    150.4   0.001464767   0.00725  -0.08517   0.00002  -0.00000
  87   66631.1    150.1   0.094886133   0.46882   0.68470  -0.00003   0.00006
  88   66949.2    149.4   0.000014776   0.00007  -0.00007  -0.00003  -0.00852
  89   67020.1    149.2   0.000276427   0.00136  -0.03685   0.00003  -0.00001
  90   67460.4    148.2   0.000000176   0.00000  -0.00001  -0.00000  -0.00093
  91   67667.1    147.8   0.000042091   0.00020  -0.00000   0.00018  -0.01431
  92   67673.7    147.8   0.008245411   0.04011  -0.00007   0.20028   0.00003
  93   67927.6    147.2   0.031862712   0.15442   0.39297   0.00057   0.00003
  94   68136.2    146.8   0.000008713   0.00004  -0.00648  -0.00033  -0.00002
  95   68200.1    146.6   0.000000046   0.00000  -0.00000  -0.00002   0.00047
  96   68282.2    146.5   0.000009068   0.00004  -0.00000  -0.00000   0.00661
  97   68316.2    146.4   0.002892723   0.01394   0.00001   0.00003   0.11807
  98   68438.5    146.1   0.000509691   0.00245  -0.00001  -0.00002   0.04952
  99   68557.4    145.9   0.000000010   0.00000  -0.00000   0.00000  -0.00022
 100   68706.3    145.5   0.004357763   0.02088   0.00001   0.00004  -0.14450
 101   68891.5    145.2   0.081820912   0.39100   0.00009   0.62530   0.00001
 102   69106.0    144.7   0.000025226   0.00012  -0.00003   0.00001  -0.01096
 103   69185.5    144.5   0.007166534   0.03410   0.00001  -0.00002  -0.18467
 104   69258.0    144.4   0.000137886   0.00066  -0.00004   0.00002   0.02560
 105   69279.9    144.3   0.016184605   0.07691  -0.27732  -0.00134  -0.00001
 106   69458.1    144.0   0.024321028   0.11527  -0.00219   0.33951  -0.00001
 107   69554.3    143.8   0.000000961   0.00000   0.00000  -0.00001   0.00213
 108   69643.2    143.6   0.075378762   0.35632   0.00230  -0.59692   0.00001
 109   69783.1    143.3   0.000000147   0.00000  -0.00003  -0.00000   0.00083
 110   70039.8    142.8   0.160224230   0.75311   0.86781   0.00428   0.00007
 111   70047.1    142.8   0.000001887   0.00001  -0.00110   0.00002  -0.00277
 112   70135.1    142.6   0.028870184   0.13552  -0.02477   0.36729  -0.00003
 113   70139.3    142.6   0.003217953   0.01510   0.06907   0.10165   0.00000
 114   70403.7    142.0   0.051961685   0.24298   0.49293   0.00010   0.00004
 115   70583.4    141.7   0.007141788   0.03331  -0.00002   0.00008   0.18251
 116   70757.2    141.3   0.000078165   0.00036  -0.00003  -0.00000  -0.01907
 117   70932.8    141.0   0.000258676   0.00120  -0.00003   0.00002   0.03465
 118   71079.3    140.7   0.023535427   0.10901  -0.33016   0.00107  -0.00003
 119   71378.3    140.1   0.000001821   0.00001  -0.00007   0.00000   0.00290
 120   71393.1    140.1   0.003900536   0.01799  -0.13411   0.00019  -0.00001
 121   71635.3    139.6   0.000227375   0.00104   0.00000   0.00002  -0.03233
 122   71751.9    139.4   0.039291054   0.18028  -0.00047  -0.42459   0.00000
 123   71870.9    139.1   0.002901115   0.01329   0.00001   0.00001  -0.11528
 124   72204.0    138.5   0.000000446   0.00000   0.00000   0.00001  -0.00143
 125   72366.2    138.2   0.000415215   0.00189  -0.00009   0.04346   0.00002
 126   72519.1    137.9   0.000006229   0.00003   0.00000  -0.00002  -0.00532
 127   72622.0    137.7   0.003448882   0.01563   0.00101   0.12503  -0.00001
 128   72714.7    137.5   0.014447615   0.06541  -0.25574  -0.00257  -0.00002
 129   72725.8    137.5   0.000068064   0.00031   0.00003   0.00006   0.01755
 130   72807.3    137.3   0.006894202   0.03117   0.17656   0.00037   0.00001
 131   72973.8    137.0   0.000021086   0.00010  -0.00000  -0.00068   0.00973
 132   72976.7    137.0   0.088370552   0.39866  -0.00164   0.63139   0.00001
 133   72995.6    137.0   0.009119935   0.04113   0.20281   0.00073   0.00003
 134   73037.5    136.9   0.000055444   0.00025  -0.00010   0.00005   0.01581
 135   73068.3    136.9   0.025107447   0.11312   0.00058  -0.33634   0.00001
 136   73330.6    136.4   0.027531292   0.12360   0.00070  -0.35157  -0.00001
 137   73469.1    136.1   0.000009486   0.00004   0.00001   0.00002  -0.00652
 138   73547.3    136.0   0.000051472   0.00023  -0.00003   0.00002  -0.01518
 139   73598.3    135.9   0.003273722   0.01464  -0.00001  -0.00006   0.12101
 140   73658.5    135.8   0.001188879   0.00531  -0.00006   0.00006  -0.07289
 141   73687.7    135.7   0.010233951   0.04572  -0.00371   0.21379   0.00002
 142   73731.2    135.6   0.068009711   0.30367  -0.55106  -0.00111  -0.00003
 143   73892.5    135.3   0.000007413   0.00003   0.00011  -0.00003   0.00575
 144   74036.1    135.1   0.000688430   0.00306   0.00028  -0.05533  -0.00001
 145   74168.2    134.8   0.001353225   0.00601  -0.00002   0.00001  -0.07750
 146   74172.1    134.8   0.000628194   0.00279   0.00002   0.00000  -0.05280
 147   74309.9    134.6   0.000006254   0.00003   0.00001  -0.00001  -0.00526
 148   74323.2    134.5   0.000035916   0.00016  -0.00000   0.00000   0.01261
 149   74495.0    134.2   0.002219621   0.00981  -0.09903  -0.00144  -0.00000
 150   74762.7    133.8   0.006041672   0.02660   0.00007  -0.00001   0.16311
 151   74788.5    133.7   0.000602610   0.00265   0.04942   0.01451   0.00003
 152   74798.0    133.7   0.008790810   0.03869  -0.19664   0.00508   0.00007
 153   74803.2    133.7   0.000013870   0.00006   0.00042  -0.00001   0.00780
 154   74831.2    133.6   0.014950340   0.06577  -0.25646  -0.00066  -0.00001
 155   74882.8    133.5   0.005530131   0.02431   0.00000  -0.00004   0.15592
 156   74980.9    133.4   0.010163879   0.04463  -0.21125  -0.00098  -0.00002
 157   75069.9    133.2   0.000237514   0.00104   0.00002  -0.00021   0.03227
 158   75098.7    133.2   0.007851405   0.03442   0.00039   0.18552   0.00007
 159   75286.8    132.8   0.000078046   0.00034   0.01841   0.00153  -0.00001
 160   75552.1    132.4   0.000000154   0.00000   0.00000  -0.00000  -0.00082
 161   75627.9    132.2   0.008862140   0.03858  -0.00002  -0.00000   0.19641
 162   75673.1    132.1   0.001315812   0.00572  -0.00076   0.07566   0.00000
 163   75790.8    131.9   0.000003602   0.00002  -0.00001   0.00000  -0.00396
 164   75939.9    131.7   0.000004840   0.00002   0.00001   0.00001   0.00458
 165   76045.9    131.5   0.000175125   0.00076  -0.00002   0.00000   0.02753
 166   76268.5    131.1   0.019295407   0.08329   0.28860   0.00015   0.00003
 167   76310.9    131.0   0.000005384   0.00002   0.00007  -0.00000  -0.00482
 168   76444.7    130.8   0.000302324   0.00130  -0.00142   0.03605  -0.00000
 169   76669.4    130.4   0.002632835   0.01131   0.00416   0.10624  -0.00001
 170   76679.8    130.4   0.000320631   0.00138   0.03696  -0.00325   0.00001
 171   76956.9    129.9   0.022453519   0.09605  -0.30992   0.00080   0.00011
 172   76962.2    129.9   0.018613753   0.07962   0.00013   0.00001   0.28217
 173   77045.6    129.8   0.004567611   0.01952   0.00002  -0.00000  -0.13970
 174   77063.5    129.8   0.005109885   0.02183   0.00003   0.00001  -0.14775
 175   77228.7    129.5   0.000039390   0.00017  -0.00004  -0.00001   0.01296
 176   77275.4    129.4   0.000004193   0.00002  -0.00000  -0.00000   0.00423
 177   77298.2    129.4   0.000002014   0.00001   0.00291  -0.00033  -0.00001
 178   77403.1    129.2   0.002036330   0.00866  -0.09280   0.00704  -0.00001
 179   77466.4    129.1   0.058823090   0.24998   0.00925  -0.49990  -0.00000
 180   77503.2    129.0   0.001279379   0.00543  -0.00006  -0.00005   0.07372
 181   77702.1    128.7   0.199626300   0.84579  -0.91959  -0.01175  -0.00009
 182   77722.9    128.7   0.010584302   0.04483  -0.01147   0.21143   0.00002
 183   77728.7    128.7   0.000066378   0.00028  -0.00033  -0.00012   0.01676
 184   77861.6    128.4   0.000001748   0.00001  -0.00004  -0.00000  -0.00272
 185   78118.6    128.0   0.006047135   0.02548  -0.00157   0.15963   0.00003
 186   78187.8    127.9   0.000080219   0.00034  -0.00001  -0.00001   0.01838
 187   78477.1    127.4   0.005769153   0.02420   0.00003  -0.00003   0.15557
 188   78510.0    127.4   0.003826676   0.01605   0.01398  -0.12590   0.00001
 189   78655.4    127.1   0.000000553   0.00000   0.00001   0.00000   0.00152
 190   78772.7    126.9   0.002561707   0.01071   0.10315   0.00813  -0.00003
 191   78805.9    126.9   0.001102199   0.00460   0.00013   0.00000   0.06786
 192   78906.6    126.7   0.012807226   0.05343   0.02157  -0.23015  -0.00001
 193   78924.8    126.7   0.008962441   0.03738  -0.19258  -0.01728  -0.00005
 194   78944.7    126.7   0.022720461   0.09475  -0.00006   0.00002   0.30781
 195   79068.0    126.5   0.000005206   0.00002  -0.00001   0.00007   0.00466
 196   79082.9    126.4   0.001097324   0.00457  -0.00084  -0.06758   0.00003

Dispersion correction           -0.059109563
FINAL SINGLE POINT ENERGY      -577.320769179500

DIPOLE MOMENT
-------------
                                X             Y             Z
Electronic contribution:     -0.00001       1.20941      -0.00007
Nuclear contribution   :     -0.00000      -1.46901       0.00008
                        -----------------------------------------
Total Dipole Moment    :     -0.00001      -0.25960       0.00001
                        -----------------------------------------
Magnitude (a.u.)       :      0.25960
Magnitude (Debye)      :      0.65985

Rotational constants in cm-1:     0.040925     0.020370     0.013635
Rotational constants in MHz :  1226.886748   610.683976   408.760723

                             ****ORCA TERMINATED NORMALLY****
TOTAL RUN TIME: 0 days 2 hours 45 minutes 50 seconds 104 msec
