                         Program Version 5.0.4 -  RELEASE  -
|  1> !M062X def2-Tzvp opt freq
|  2> %maxcore 7000
|  3> %pal
|  4> nprocs 2
|  5> end
|  6>
|  7> * XYZ 0 1
|  8>   C   2.46738420969044     -2.81263795783172     -0.00000966049012
|  9>   C   1.29021523102800     -3.51201377298185     -0.00004058752843
| 10>   C   0.03545823654551     -2.84357180192689     -0.00011700654154
| 11>   C   -1.20218758884439     -3.54318722424976     -0.00015075042869
| 12>   C   -2.39648198994610     -2.87343733279545     -0.00022388485081
| 13>   C   -2.44483130317816     -1.45256921864444     -0.00026846552257
| 14>   C   -3.66953458511693     -0.73051865229528     -0.00034472511273
| 15>   C   -3.68661914160231      0.63861472840141     -0.00038730418280
| 16>   C   -2.48033157917503      1.39101004534826     -0.00035686907249
| 17>   C   -2.46738422792533      2.81263810716101     -0.00040016524558
| 18>   C   -1.29021516017741      3.51201377026014     -0.00036907952599
| 19>   C   -0.03545824433177      2.84357164855152     -0.00029288255853
| 20>   C   1.20218752109912      3.54318714702554     -0.00025868906408
| 21>   C   2.39648192584401      2.87343728473768     -0.00018556866102
| 22>   C   2.44483133698195      1.45256923480284     -0.00014000970252
| 23>   C   3.66953468525759      0.73051872239281     -0.00006428529983
| 24>   C   3.68661917516395     -0.63861465299814     -0.00002177884745
| 25>   C   2.48033158796062     -1.39100989330468     -0.00005249628054
| 26>   C   1.24283538920719     -0.69700184097772     -0.00012812520396
| 27>   C   1.22507788089312      0.72785817295726     -0.00017277212960
| 28>   C   -0.01778931269948      1.42488311059932     -0.00024838531844
| 29>   C   -1.24283548786547      0.69700179739327     -0.00028095765872
| 30>   C   -1.22507784798994     -0.72785823769859     -0.00023664253283
| 31>   C   0.01778926369246     -1.42488327113558     -0.00016058910124
| 32>   H   3.41550123147825     -3.34209676159282      0.00004910526765
| 33>   H   1.30169328790670     -4.59787475323892     -0.00000731993262
| 34>   H   -1.18632309082569     -4.62898226472676     -0.00011753033763
| 35>   H   -3.33114883046848     -3.42627830125467     -0.00024867043727
| 36>   H   -4.60200524090237     -1.28700819551871     -0.00036909708835
| 37>   H   -4.63271390284347      1.17161298430852     -0.00044608968339
| 38>   H   -3.41550124203130      3.34209675863002     -0.00045950330323
| 39>   H   -1.30169305214735      4.59787465380430     -0.00040321338515
| 40>   H   1.18632293779304      4.62898220026966     -0.00029320761784
| 41>   H   3.33114870064961      3.42627836580996     -0.00016042132367
| 42>   H   4.60200524894750      1.28700844288560     -0.00003923404308
| 43>   H   4.63271397793190     -1.17161304216713      0.00003686274508
| 44> **                         ****END OF INPUT****
 Total Charge           Charge          ....    0
 Multiplicity           Mult            ....    1
 Number of Electrons    NEL             ....  156
FINAL SINGLE POINT ENERGY      -921.846862755569
FINAL SINGLE POINT ENERGY      -921.847793240942
FINAL SINGLE POINT ENERGY      -921.847856334710
FINAL SINGLE POINT ENERGY      -921.847868084394
                    ***********************HURRAY********************

CARTESIAN COORDINATES (ANGSTROEM)
---------------------------------
  C      2.458129   -2.803269   -0.000011
  C      1.286921   -3.498710   -0.000036
  C      0.035214   -2.828717   -0.000122
  C     -1.199440   -3.529934   -0.000144
  C     -2.387811   -2.864075   -0.000228
  C     -2.432861   -1.444808   -0.000269
  C     -3.658120   -0.727150   -0.000349
  C     -3.675160    0.635002   -0.000390
  C     -2.468058    1.383279   -0.000356
  C     -2.458128    2.803269   -0.000398
  C     -1.286922    3.498714   -0.000364
  C     -0.035213    2.828722   -0.000296
  C      1.199443    3.529935   -0.000251
  C      2.387815    2.864075   -0.000185
  C      2.432864    1.444808   -0.000138
  C      3.658119    0.727145   -0.000070
  C      3.675155   -0.635007   -0.000027
  C      2.468053   -1.383280   -0.000051
  C      1.240504   -0.695535   -0.000129
  C      1.222756    0.726509   -0.000176
  C     -0.017684    1.421597   -0.000245
  C     -1.240505    0.695539   -0.000284
  C     -1.222758   -0.726506   -0.000240
  C      0.017683   -1.421593   -0.000162
  H      3.405418   -3.329353    0.000055
  H      1.294925   -4.582268   -0.000001
  H     -1.180473   -4.613325   -0.000112
  H     -3.321840   -3.413387   -0.000248
  H     -4.586101   -1.286625   -0.000372
  H     -4.616784    1.171149   -0.000446
  H     -3.405417    3.329353   -0.000457
  H     -1.294929    4.582271   -0.000399
  H      1.180479    4.613325   -0.000291
  H      3.321845    3.413387   -0.000156
  H      4.586103    1.286618   -0.000047
  H      4.616778   -1.171156    0.000028

 Multiplicity           Mult            ....    1
 Number of Electrons    NEL             ....  156
 Basis Dimension        Dim             ....  816

ORBITAL ENERGIES
----------------

  NO   OCC          E(Eh)            E(eV)
   0   2.0000     -10.555730      -287.2360
   1   2.0000     -10.555494      -287.2296
   2   2.0000     -10.555481      -287.2292
   3   2.0000     -10.555048      -287.2175
   4   2.0000     -10.555027      -287.2169
   5   2.0000     -10.554938      -287.2145
   6   2.0000     -10.554553      -287.2040
   7   2.0000     -10.554538      -287.2036
   8   2.0000     -10.554511      -287.2028
   9   2.0000     -10.554323      -287.1977
  10   2.0000     -10.554301      -287.1971
  11   2.0000     -10.554107      -287.1918
  12   2.0000     -10.547444      -287.0106
  13   2.0000     -10.547442      -287.0105
  14   2.0000     -10.547361      -287.0083
  15   2.0000     -10.547359      -287.0082
  16   2.0000     -10.547342      -287.0078
  17   2.0000     -10.547326      -287.0073
  18   2.0000     -10.546496      -286.9848
  19   2.0000     -10.546493      -286.9847
  20   2.0000     -10.546410      -286.9824
  21   2.0000     -10.546409      -286.9824
  22   2.0000     -10.546387      -286.9818
  23   2.0000     -10.546387      -286.9818
  24   2.0000      -1.019759       -27.7491
  25   2.0000      -0.980436       -26.6790
  26   2.0000      -0.980420       -26.6786
  27   2.0000      -0.929355       -25.2890
  28   2.0000      -0.929324       -25.2882
  29   2.0000      -0.910530       -24.7768
  30   2.0000      -0.877990       -23.8913
  31   2.0000      -0.861095       -23.4316
  32   2.0000      -0.843217       -22.9451
  33   2.0000      -0.843140       -22.9430
  34   2.0000      -0.808233       -21.9931
  35   2.0000      -0.808178       -21.9916
  36   2.0000      -0.723992       -19.7008
  37   2.0000      -0.723913       -19.6987
  38   2.0000      -0.719424       -19.5765
  39   2.0000      -0.719357       -19.5747
  40   2.0000      -0.712219       -19.3805
  41   2.0000      -0.644022       -17.5247
  42   2.0000      -0.637636       -17.3510
  43   2.0000      -0.618336       -16.8258
  44   2.0000      -0.618300       -16.8248
  45   2.0000      -0.616334       -16.7713
  46   2.0000      -0.592201       -16.1146
  47   2.0000      -0.548982       -14.9386
  48   2.0000      -0.548937       -14.9373
  49   2.0000      -0.530083       -14.4243
  50   2.0000      -0.529950       -14.4207
  51   2.0000      -0.527022       -14.3410
  52   2.0000      -0.526825       -14.3356
  53   2.0000      -0.508994       -13.8504
  54   2.0000      -0.497321       -13.5328
  55   2.0000      -0.489638       -13.3237
  56   2.0000      -0.489559       -13.3216
  57   2.0000      -0.484918       -13.1953
  58   2.0000      -0.467701       -12.7268
  59   2.0000      -0.467656       -12.7256
  60   2.0000      -0.461740       -12.5646
  61   2.0000      -0.461727       -12.5642
  62   2.0000      -0.438075       -11.9206
  63   2.0000      -0.437083       -11.8936
  64   2.0000      -0.421294       -11.4640
  65   2.0000      -0.421146       -11.4600
  66   2.0000      -0.419711       -11.4209
  67   2.0000      -0.400148       -10.8886
  68   2.0000      -0.400119       -10.8878
  69   2.0000      -0.381308       -10.3759
  70   2.0000      -0.372725       -10.1424
  71   2.0000      -0.372410       -10.1338
  72   2.0000      -0.332369        -9.0442
  73   2.0000      -0.324420        -8.8279
  74   2.0000      -0.308059        -8.3827
  75   2.0000      -0.308000        -8.3811
  76   2.0000      -0.251276        -6.8376
  77   2.0000      -0.251210        -6.8358
  78   0.0000      -0.035744        -0.9727
  79   0.0000      -0.035710        -0.9717
  80   0.0000       0.006436         0.1751
  81   0.0000       0.006552         0.1783
  82   0.0000       0.025027         0.6810

MULLIKEN ATOMIC CHARGES
-----------------------
   0 C :   -0.186443
   1 C :   -0.179161
   2 C :    0.079711
   3 C :   -0.182824
   4 C :   -0.185925
   5 C :    0.086605
   6 C :   -0.179892
   7 C :   -0.182221
   8 C :    0.089823
   9 C :   -0.188281
  10 C :   -0.181239
  11 C :    0.082241
  12 C :   -0.181377
  13 C :   -0.186410
  14 C :    0.084904
  15 C :   -0.178814
  16 C :   -0.177308
  17 C :    0.082483
  18 C :    0.014686
  19 C :    0.010627
  20 C :    0.015771
  21 C :    0.013185
  22 C :    0.015540
  23 C :    0.022054
  24 H :    0.132936
  25 H :    0.132673
  26 H :    0.132440
  27 H :    0.132907
  28 H :    0.132610
  29 H :    0.132502
  30 H :    0.132366
  31 H :    0.132321
  32 H :    0.132472
  33 H :    0.132883
  34 H :    0.132981
  35 H :    0.133172
Sum of atomic charges:   -0.0000000

LOEWDIN ATOMIC CHARGES
----------------------
   0 C :   -0.100418
   1 C :   -0.100443
   2 C :   -0.094153
   3 C :   -0.100387
   4 C :   -0.100388
   5 C :   -0.094046
   6 C :   -0.100365
   7 C :   -0.100311
   8 C :   -0.094012
   9 C :   -0.100424
  10 C :   -0.100450
  11 C :   -0.094153
  12 C :   -0.100386
  13 C :   -0.100390
  14 C :   -0.094046
  15 C :   -0.100358
  16 C :   -0.100300
  17 C :   -0.094015
  18 C :   -0.004554
  19 C :   -0.004563
  20 C :   -0.004556
  21 C :   -0.004555
  22 C :   -0.004561
  23 C :   -0.004552
  24 H :    0.149699
  25 H :    0.149701
  26 H :    0.149683
  27 H :    0.149703
  28 H :    0.149723
  29 H :    0.149685
  30 H :    0.149706
  31 H :    0.149706
  32 H :    0.149683
  33 H :    0.149704
  34 H :    0.149715
  35 H :    0.149678

  Mayer bond orders larger than 0.100000
B(  0-C ,  1-C ) :   1.6426 B(  0-C , 17-C ) :   1.2440 B(  0-C , 24-H ) :   0.9325
B(  1-C ,  2-C ) :   1.2476 B(  1-C , 25-H ) :   0.9303 B(  2-C ,  3-C ) :   1.2435
B(  2-C , 23-C ) :   1.3082 B(  3-C ,  4-C ) :   1.6400 B(  3-C , 26-H ) :   0.9330
B(  4-C ,  5-C ) :   1.2423 B(  4-C , 27-H ) :   0.9344 B(  5-C ,  6-C ) :   1.2435
B(  5-C , 22-C ) :   1.3059 B(  6-C ,  7-C ) :   1.6375 B(  6-C , 28-H ) :   0.9328
B(  7-C ,  8-C ) :   1.2412 B(  7-C , 29-H ) :   0.9346 B(  8-C ,  9-C ) :   1.2377
B(  8-C , 21-C ) :   1.3049 B(  9-C , 10-C ) :   1.6384 B(  9-C , 30-H ) :   0.9376
B( 10-C , 11-C ) :   1.2434 B( 10-C , 31-H ) :   0.9341 B( 11-C , 12-C ) :   1.2440
B( 11-C , 20-C ) :   1.3079 B( 12-C , 13-C ) :   1.6399 B( 12-C , 32-H ) :   0.9326
B( 13-C , 14-C ) :   1.2414 B( 13-C , 33-H ) :   0.9347 B( 14-C , 15-C ) :   1.2491
B( 14-C , 19-C ) :   1.3076 B( 15-C , 16-C ) :   1.6427 B( 15-C , 34-H ) :   0.9279
B( 16-C , 17-C ) :   1.2495 B( 16-C , 35-H ) :   0.9282 B( 17-C , 18-C ) :   1.3105
B( 18-C , 19-C ) :   1.1734 B( 18-C , 23-C ) :   1.1598 B( 19-C , 20-C ) :   1.1607
B( 20-C , 21-C ) :   1.1597 B( 21-C , 22-C ) :   1.1717 B( 22-C , 23-C ) :   1.1578

FINAL SINGLE POINT ENERGY      -921.847870418370

DIPOLE MOMENT
-------------
                                X             Y             Z
Electronic contribution:     -0.00001       0.00001      -0.00001
Nuclear contribution   :      0.00000      -0.00001       0.00001
                        -----------------------------------------
Total Dipole Moment    :     -0.00000      -0.00000       0.00000
                        -----------------------------------------
Magnitude (a.u.)       :      0.00001
Magnitude (Debye)      :      0.00002

VIBRATIONAL FREQUENCIES
-----------------------

Scaling factor for frequencies =  1.000000000  (already applied!)

   0:         0.00 cm**-1
   1:         0.00 cm**-1
   2:         0.00 cm**-1
   3:         0.00 cm**-1
   4:         0.00 cm**-1
   5:         0.00 cm**-1
   6:        88.86 cm**-1
   7:        90.20 cm**-1
   8:       124.26 cm**-1
   9:       167.63 cm**-1
  10:       228.14 cm**-1
  11:       299.64 cm**-1
  12:       300.54 cm**-1
  13:       303.57 cm**-1
  14:       306.43 cm**-1
  15:       371.37 cm**-1
  16:       371.43 cm**-1
  17:       386.72 cm**-1
  18:       387.38 cm**-1
  19:       461.50 cm**-1
  20:       462.88 cm**-1
  21:       481.34 cm**-1
  22:       495.43 cm**-1
  23:       498.22 cm**-1
  24:       498.92 cm**-1
  25:       539.92 cm**-1
  26:       562.75 cm**-1
  27:       564.91 cm**-1
  28:       570.38 cm**-1
  29:       571.37 cm**-1
  30:       644.13 cm**-1
  31:       672.24 cm**-1
  32:       682.56 cm**-1
  33:       689.40 cm**-1
  34:       691.57 cm**-1
  35:       692.79 cm**-1
  36:       692.82 cm**-1
  37:       785.07 cm**-1
  38:       788.08 cm**-1
  39:       788.35 cm**-1
  40:       798.77 cm**-1
  41:       800.34 cm**-1
  42:       839.51 cm**-1
  43:       840.09 cm**-1
  44:       860.89 cm**-1
  45:       861.66 cm**-1
  46:       872.45 cm**-1
  47:       873.88 cm**-1
  48:       890.23 cm**-1
  49:       945.14 cm**-1
  50:       976.61 cm**-1
  51:       979.69 cm**-1
  52:       983.02 cm**-1
  53:       984.16 cm**-1
  54:       992.02 cm**-1
  55:       993.32 cm**-1
  56:       999.58 cm**-1
  57:      1024.08 cm**-1
  58:      1024.37 cm**-1
  59:      1063.97 cm**-1
  60:      1141.36 cm**-1
  61:      1166.27 cm**-1
  62:      1166.31 cm**-1
  63:      1185.40 cm**-1
  64:      1185.61 cm**-1
  65:      1191.50 cm**-1
  66:      1214.14 cm**-1
  67:      1247.82 cm**-1
  68:      1248.04 cm**-1
  69:      1254.96 cm**-1
  70:      1259.42 cm**-1
  71:      1260.54 cm**-1
  72:      1262.21 cm**-1
  73:      1350.82 cm**-1
  74:      1351.82 cm**-1
  75:      1390.79 cm**-1
  76:      1402.86 cm**-1
  77:      1442.33 cm**-1
  78:      1443.53 cm**-1
  79:      1451.17 cm**-1
  80:      1458.74 cm**-1
  81:      1459.28 cm**-1
  82:      1485.82 cm**-1
  83:      1486.05 cm**-1
  84:      1507.06 cm**-1
  85:      1507.86 cm**-1
  86:      1556.70 cm**-1
  87:      1556.94 cm**-1
  88:      1562.92 cm**-1
  89:      1598.79 cm**-1
  90:      1633.71 cm**-1
  91:      1675.86 cm**-1
  92:      1692.19 cm**-1
  93:      1694.20 cm**-1
  94:      1699.67 cm**-1
  95:      1700.45 cm**-1
  96:      3201.39 cm**-1
  97:      3201.83 cm**-1
  98:      3202.06 cm**-1
  99:      3202.51 cm**-1
 100:      3202.70 cm**-1
 101:      3202.70 cm**-1
 102:      3218.02 cm**-1
 103:      3218.26 cm**-1
 104:      3218.80 cm**-1
 105:      3219.17 cm**-1
 106:      3219.61 cm**-1
 107:      3220.00 cm**-1

IR SPECTRUM
-----------

 Mode   freq       eps      Int      T**2         TX        TY        TZ
       cm**-1   L/(mol*cm) km/mol    a.u.
----------------------------------------------------------------------------
  6:     88.86   0.000004    0.02  0.000012  ( 0.000007 -0.000015 -0.003507)
  7:     90.20   0.000001    0.00  0.000002  ( 0.000001 -0.000008 -0.001570)
  8:    124.26   0.001382    6.98  0.003470  (-0.000021 -0.000000 -0.058907)
  9:    167.63   0.000000    0.00  0.000000  (-0.000020  0.000014  0.000001)
 10:    228.14   0.000000    0.00  0.000000  ( 0.000006 -0.000021  0.000003)
 11:    299.64   0.000000    0.00  0.000000  ( 0.000013  0.000015  0.000006)
 12:    300.54   0.000000    0.00  0.000000  ( 0.000038 -0.000029 -0.000005)
 13:    303.57   0.000000    0.00  0.000000  ( 0.000013  0.000012  0.000471)
 14:    306.43   0.000000    0.00  0.000000  ( 0.000005  0.000005 -0.000325)
 15:    371.37   0.000000    0.00  0.000000  (-0.000000  0.000001  0.000000)
 16:    371.43   0.000000    0.00  0.000000  ( 0.000002 -0.000001 -0.000001)
 17:    386.72   0.000625    3.16  0.000504  (-0.021558  0.006274 -0.000002)
 18:    387.38   0.000655    3.31  0.000528  ( 0.006198  0.022121  0.000000)
 19:    461.50   0.000000    0.00  0.000000  ( 0.000025 -0.000031  0.000003)
 20:    462.88   0.000000    0.00  0.000000  (-0.000011 -0.000011  0.000021)
 21:    481.34   0.000002    0.01  0.000002  ( 0.001228  0.000031 -0.000000)
 22:    495.43   0.000000    0.00  0.000000  ( 0.000000  0.000000 -0.000000)
 23:    498.22   0.000000    0.00  0.000000  (-0.000002  0.000002  0.000001)
 24:    498.92   0.000000    0.00  0.000000  (-0.000003 -0.000001  0.000000)
 25:    539.92   0.000000    0.00  0.000000  ( 0.000002  0.000006 -0.000311)
 26:    562.75   0.000472    2.38  0.000262  (-0.000001  0.000004  0.016172)
 27:    564.91   0.000470    2.37  0.000260  (-0.000005 -0.000009 -0.016110)
 28:    570.38   0.008216   41.52  0.004495  (-0.000000  0.000012 -0.067043)
 29:    571.37   0.000000    0.00  0.000000  ( 0.000009 -0.000192 -0.000043)
 30:    644.13   0.000000    0.00  0.000000  (-0.000005 -0.000005 -0.000001)
 31:    672.24   0.000000    0.00  0.000000  ( 0.000001  0.000052 -0.000003)
 32:    682.56   0.000000    0.00  0.000000  ( 0.000003 -0.000309 -0.000001)
 33:    689.40   0.000000    0.00  0.000000  (-0.000037 -0.000014  0.000042)
 34:    691.57   0.000000    0.00  0.000000  ( 0.000030 -0.000043 -0.000004)
 35:    692.79   0.000000    0.00  0.000000  (-0.000003 -0.000003  0.000001)
 36:    692.82   0.000000    0.00  0.000000  (-0.000000  0.000002 -0.000000)
 37:    785.07   0.000000    0.00  0.000000  ( 0.000012 -0.000011  0.000003)
 38:    788.08   0.001645    8.31  0.000651  ( 0.016101 -0.019804  0.000002)
 39:    788.35   0.001634    8.26  0.000647  ( 0.019370  0.016482  0.000000)
 40:    798.77   0.000002    0.01  0.000001  ( 0.000006  0.000004  0.000791)
 41:    800.34   0.000000    0.00  0.000000  ( 0.000004 -0.000001 -0.000258)
 42:    839.51   0.000000    0.00  0.000000  ( 0.000237 -0.000058  0.000001)
 43:    840.09   0.000010    0.05  0.000004  ( 0.000010 -0.001910 -0.000003)
 44:    860.89   0.000006    0.03  0.000002  ( 0.000005  0.000011  0.001506)
 45:    861.66   0.000002    0.01  0.000001  (-0.000002  0.000008 -0.000834)
 46:    872.45   0.000000    0.00  0.000000  ( 0.000021 -0.000023  0.000073)
 47:    873.88   0.000000    0.00  0.000000  ( 0.000031 -0.000004 -0.000074)
 48:    890.23   0.030245  152.85  0.010602  (-0.000002  0.000007 -0.102967)
 49:    945.14   0.000000    0.00  0.000000  ( 0.000005  0.000009  0.000000)
 50:    976.61   0.000000    0.00  0.000000  ( 0.000013 -0.000001  0.000230)
 51:    979.69   0.000000    0.00  0.000000  (-0.000016 -0.000182 -0.000145)
 52:    983.02   0.000000    0.00  0.000000  (-0.000008 -0.000003 -0.000058)
 53:    984.16   0.000000    0.00  0.000000  ( 0.000009  0.000014  0.000023)
 54:    992.02   0.000036    0.18  0.000011  ( 0.000015 -0.000009  0.003353)
 55:    993.32   0.000013    0.07  0.000004  ( 0.000005  0.000019 -0.002030)
 56:    999.58   0.000000    0.00  0.000000  (-0.000010 -0.000136  0.000029)
 57:   1024.08   0.000000    0.00  0.000000  (-0.000001 -0.000003  0.000002)
 58:   1024.37   0.000000    0.00  0.000000  (-0.000006  0.000006  0.000000)
 59:   1063.97   0.000000    0.00  0.000000  (-0.000004  0.000002 -0.000000)
 60:   1141.36   0.000021    0.10  0.000006  (-0.002370  0.000057 -0.000001)
 61:   1166.27   0.001696    8.57  0.000454  ( 0.016534  0.013429 -0.000001)
 62:   1166.31   0.001905    9.63  0.000510  (-0.011553  0.019399 -0.000001)
 63:   1185.40   0.000000    0.00  0.000000  (-0.000001 -0.000002 -0.000000)
 64:   1185.61   0.000000    0.00  0.000000  ( 0.000001  0.000000  0.000000)
 65:   1191.50   0.000000    0.00  0.000000  ( 0.000118  0.000279 -0.000001)
 66:   1214.14   0.000015    0.08  0.000004  ( 0.001975 -0.000082  0.000001)
 67:   1247.82   0.000134    0.68  0.000034  (-0.003530  0.004594 -0.000000)
 68:   1248.04   0.000185    0.93  0.000046  (-0.006281 -0.002599 -0.000001)
 69:   1254.96   0.000000    0.00  0.000000  (-0.000001  0.000000  0.000000)
 70:   1259.42   0.000000    0.00  0.000000  (-0.000001  0.000000  0.000000)
 71:   1260.54   0.000000    0.00  0.000000  (-0.000000  0.000001 -0.000001)
 72:   1262.21   0.000000    0.00  0.000000  (-0.000002 -0.000002 -0.000000)
 73:   1350.82   0.004221   21.33  0.000975  ( 0.030485 -0.006769  0.000002)
 74:   1351.82   0.004538   22.93  0.001048  (-0.006482 -0.031710  0.000000)
 75:   1390.79   0.000022    0.11  0.000005  ( 0.002209  0.000282  0.000000)
 76:   1402.86   0.000000    0.00  0.000000  (-0.000003  0.000003  0.000001)
 77:   1442.33   0.000000    0.00  0.000000  (-0.000000 -0.000000 -0.000000)
 78:   1443.53   0.000000    0.00  0.000000  ( 0.000001 -0.000001  0.000000)
 79:   1451.17   0.000000    0.00  0.000000  (-0.000126  0.000085 -0.000001)
 80:   1458.74   0.000008    0.04  0.000002  ( 0.000281  0.001286 -0.000000)
 81:   1459.28   0.000030    0.15  0.000006  (-0.002510  0.000214  0.000000)
 82:   1485.82   0.000000    0.00  0.000000  (-0.000003 -0.000001 -0.000001)
 83:   1486.05   0.000000    0.00  0.000000  ( 0.000001 -0.000001  0.000000)
 84:   1507.06   0.000000    0.00  0.000000  (-0.000003  0.000006  0.000000)
 85:   1507.86   0.000000    0.00  0.000000  ( 0.000003  0.000001  0.000002)
 86:   1556.70   0.000753    3.81  0.000151  ( 0.007427  0.009790  0.000000)
 87:   1556.94   0.000770    3.89  0.000154  (-0.009084  0.008476 -0.000001)
 88:   1562.92   0.000069    0.35  0.000014  ( 0.003471  0.001285  0.000000)
 89:   1598.79   0.000000    0.00  0.000000  (-0.000001 -0.000005  0.000001)
 90:   1633.71   0.000000    0.00  0.000000  (-0.000064  0.000018 -0.000000)
 91:   1675.86   0.000000    0.00  0.000000  ( 0.000003 -0.000002  0.000000)
 92:   1692.19   0.001494    7.55  0.000276  ( 0.003932  0.016128 -0.000001)
 93:   1694.20   0.001437    7.26  0.000265  (-0.015785  0.003945 -0.000001)
 94:   1699.67   0.000000    0.00  0.000000  ( 0.000007  0.000007 -0.000002)
 95:   1700.45   0.000000    0.00  0.000000  (-0.000003  0.000004 -0.000000)
 96:   3201.39   0.000000    0.00  0.000000  ( 0.000016  0.000025 -0.000000)
 97:   3201.83   0.000284    1.44  0.000028  (-0.004859 -0.002019 -0.000000)
 98:   3202.06   0.000261    1.32  0.000025  ( 0.002258 -0.004506  0.000000)
 99:   3202.51   0.000000    0.00  0.000000  ( 0.000026 -0.000034 -0.000000)
100:   3202.70   0.000008    0.04  0.000001  (-0.000665  0.000540  0.000000)
101:   3202.70   0.000000    0.00  0.000000  ( 0.000124 -0.000090 -0.000000)
102:   3218.02   0.000541    2.74  0.000052  (-0.007025  0.001773 -0.000000)
103:   3218.26   0.000000    0.00  0.000000  (-0.000019 -0.000013  0.000000)
104:   3218.80   0.000000    0.00  0.000000  ( 0.000094 -0.000035 -0.000000)
105:   3219.17   0.006756   34.14  0.000655  ( 0.002067 -0.025509  0.000001)
106:   3219.61   0.007304   36.91  0.000708  (-0.026496 -0.002427 -0.000001)
107:   3220.00   0.000000    0.00  0.000000  ( 0.000181  0.000016  0.000000)

--------------------------
THERMOCHEMISTRY AT 298.15K
--------------------------

Temperature         ... 298.15 K
Pressure            ... 1.00 atm
Total Mass          ... 300.36 AMU

Throughout the following assumptions are being made:
  (1) The electronic state is orbitally nondegenerate
  (2) There are no thermally accessible electronically excited states
  (3) Hindered rotations indicated by low frequency modes are not
      treated as such but are treated as vibrations and this may
      cause some error
  (4) All equations used are the standard statistical mechanics
      equations for an ideal gas
  (5) All vibrations are strictly harmonic

freq.      88.86  E(vib)   ...       0.47
freq.      90.20  E(vib)   ...       0.47
freq.     124.26  E(vib)   ...       0.43
freq.     167.63  E(vib)   ...       0.38
freq.     228.14  E(vib)   ...       0.33
freq.     299.64  E(vib)   ...       0.26
freq.     300.54  E(vib)   ...       0.26
freq.     303.57  E(vib)   ...       0.26
freq.     306.43  E(vib)   ...       0.26
freq.     371.37  E(vib)   ...       0.21
freq.     371.43  E(vib)   ...       0.21
freq.     386.72  E(vib)   ...       0.20
freq.     387.38  E(vib)   ...       0.20
freq.     461.50  E(vib)   ...       0.16
freq.     462.88  E(vib)   ...       0.16
freq.     481.34  E(vib)   ...       0.15
freq.     495.43  E(vib)   ...       0.14
freq.     498.22  E(vib)   ...       0.14
freq.     498.92  E(vib)   ...       0.14
freq.     539.92  E(vib)   ...       0.12
freq.     562.75  E(vib)   ...       0.11
freq.     564.91  E(vib)   ...       0.11
freq.     570.38  E(vib)   ...       0.11
freq.     571.37  E(vib)   ...       0.11
freq.     644.13  E(vib)   ...       0.09
freq.     672.24  E(vib)   ...       0.08
freq.     682.56  E(vib)   ...       0.08
freq.     689.40  E(vib)   ...       0.07
freq.     691.57  E(vib)   ...       0.07
freq.     692.79  E(vib)   ...       0.07
freq.     692.82  E(vib)   ...       0.07
freq.     785.07  E(vib)   ...       0.05
freq.     788.08  E(vib)   ...       0.05
freq.     788.35  E(vib)   ...       0.05
freq.     798.77  E(vib)   ...       0.05
freq.     800.34  E(vib)   ...       0.05
freq.     839.51  E(vib)   ...       0.04
freq.     840.09  E(vib)   ...       0.04
freq.     860.89  E(vib)   ...       0.04
freq.     861.66  E(vib)   ...       0.04
freq.     872.45  E(vib)   ...       0.04
freq.     873.88  E(vib)   ...       0.04
freq.     890.23  E(vib)   ...       0.04
freq.     945.14  E(vib)   ...       0.03
freq.     976.61  E(vib)   ...       0.03
freq.     979.69  E(vib)   ...       0.03
freq.     983.02  E(vib)   ...       0.02
freq.     984.16  E(vib)   ...       0.02
freq.     992.02  E(vib)   ...       0.02
freq.     993.32  E(vib)   ...       0.02
freq.     999.58  E(vib)   ...       0.02
freq.    1024.08  E(vib)   ...       0.02
freq.    1024.37  E(vib)   ...       0.02
freq.    1063.97  E(vib)   ...       0.02
freq.    1141.36  E(vib)   ...       0.01
freq.    1166.27  E(vib)   ...       0.01
freq.    1166.31  E(vib)   ...       0.01
freq.    1185.40  E(vib)   ...       0.01
freq.    1185.61  E(vib)   ...       0.01
freq.    1191.50  E(vib)   ...       0.01
freq.    1214.14  E(vib)   ...       0.01
freq.    1247.82  E(vib)   ...       0.01
freq.    1248.04  E(vib)   ...       0.01
freq.    1254.96  E(vib)   ...       0.01
freq.    1259.42  E(vib)   ...       0.01
freq.    1260.54  E(vib)   ...       0.01
freq.    1262.21  E(vib)   ...       0.01
freq.    1350.82  E(vib)   ...       0.01
freq.    1351.82  E(vib)   ...       0.01
freq.    1390.79  E(vib)   ...       0.00
freq.    1402.86  E(vib)   ...       0.00
freq.    1442.33  E(vib)   ...       0.00
freq.    1443.53  E(vib)   ...       0.00
freq.    1451.17  E(vib)   ...       0.00
freq.    1458.74  E(vib)   ...       0.00
freq.    1459.28  E(vib)   ...       0.00
freq.    1485.82  E(vib)   ...       0.00
freq.    1486.05  E(vib)   ...       0.00
freq.    1507.06  E(vib)   ...       0.00
freq.    1507.86  E(vib)   ...       0.00
freq.    1556.70  E(vib)   ...       0.00
freq.    1556.94  E(vib)   ...       0.00
freq.    1562.92  E(vib)   ...       0.00
freq.    1598.79  E(vib)   ...       0.00
freq.    1633.71  E(vib)   ...       0.00
freq.    1675.86  E(vib)   ...       0.00
freq.    1692.19  E(vib)   ...       0.00
freq.    1694.20  E(vib)   ...       0.00
freq.    1699.67  E(vib)   ...       0.00
freq.    1700.45  E(vib)   ...       0.00
freq.    3201.39  E(vib)   ...       0.00
freq.    3201.83  E(vib)   ...       0.00
freq.    3202.06  E(vib)   ...       0.00
freq.    3202.51  E(vib)   ...       0.00
freq.    3202.70  E(vib)   ...       0.00
freq.    3202.70  E(vib)   ...       0.00
freq.    3218.02  E(vib)   ...       0.00
freq.    3218.26  E(vib)   ...       0.00
freq.    3218.80  E(vib)   ...       0.00
freq.    3219.17  E(vib)   ...       0.00
freq.    3219.61  E(vib)   ...       0.00
freq.    3220.00  E(vib)   ...       0.00

------------
INNER ENERGY
------------

The inner energy is: U= E(el) + E(ZPE) + E(vib) + E(rot) + E(trans)
    E(el)   - is the total energy from the electronic structure calculation
              = E(kin-el) + E(nuc-el) + E(el-el) + E(nuc-nuc)
    E(ZPE)  - the the zero temperature vibrational energy from the frequency calculation
    E(vib)  - the the finite temperature correction to E(ZPE) due to population
              of excited vibrational states
    E(rot)  - is the rotational thermal energy
    E(trans)- is the translational thermal energy

Summary of contributions to the inner energy U:
Electronic energy                ...   -921.84787042 Eh
Zero point energy                ...      0.28314158 Eh     177.67 kcal/mol
Thermal vibrational correction   ...      0.01107283 Eh       6.95 kcal/mol
Thermal rotational correction    ...      0.00141627 Eh       0.89 kcal/mol
Thermal translational correction ...      0.00141627 Eh       0.89 kcal/mol
-----------------------------------------------------------------------
Total thermal energy                   -921.55082347 Eh

Summary of corrections to the electronic energy:
(perhaps to be used in another calculation)
Total thermal correction                  0.01390537 Eh       8.73 kcal/mol
Non-thermal (ZPE) correction              0.28314158 Eh     177.67 kcal/mol
-----------------------------------------------------------------------
Total correction                          0.29704695 Eh     186.40 kcal/mol

--------
ENTHALPY
--------

The enthalpy is H = U + kB*T
                kB is Boltzmann's constant
Total free energy                 ...   -921.55082347 Eh
Thermal Enthalpy correction       ...      0.00094421 Eh       0.59 kcal/mol
-----------------------------------------------------------------------
Total Enthalpy                    ...   -921.54987926 Eh

Rotational constants in cm-1:     0.011239     0.011231     0.005617

                             ****ORCA TERMINATED NORMALLY****
TOTAL RUN TIME: 0 days 6 hours 6 minutes 28 seconds 435 msec
