                         Program Version 5.0.4 -  RELEASE  -
|  1> !b3lyp 6-311g** d4 pal4 opt freq tightscf
|  2>
|  3>
|  4>
|  5> * xyz 0 1
|  6>   C   2.45146015378047     -2.79640829756391     -0.00000894950360
|  7>   C   1.27745030019084     -3.48801980570912     -0.00004239042501
|  8>   C   0.03099629018149     -2.81476915991496     -0.00012045972332
|  9>   C   -1.20039443629787     -3.52370642524107     -0.00015136516890
| 10>   C   -2.38821402949969     -2.86374444469335     -0.00023012567495
| 11>   C   -2.43891647858436     -1.44278925697839     -0.00026805810319
| 12>   C   -3.67480088246149     -0.75352119808346     -0.00034437777681
| 13>   C   -3.72585188064763      0.61033698072383     -0.00038628640246
| 14>   C   -2.53276701463914      1.35918741087317     -0.00035640484738
| 15>   C   -2.34636446949512      2.75355673162154     -0.00039264917206
| 16>   C   -1.29642550587759      3.37994910058606     -0.00036530483861
| 17>   C   0.01703770712128      2.87663910661279     -0.00029059715926
| 18>   C   1.24338469310856      3.57000342008993     -0.00026002298658
| 19>   C   2.42207420744963      2.88216826627037     -0.00018620143084
| 20>   C   2.43229461663392      1.46799832610532     -0.00014351445541
| 21>   C   3.60647775938701      0.69813665880269     -0.00006864981400
| 22>   C   3.68586880298473     -0.64074321609760     -0.00002058571173
| 23>   C   2.46168272024364     -1.37976554725807     -0.00005005614565
| 24>   C   1.23625395499842     -0.68245903152754     -0.00012911256075
| 25>   C   1.21407015970430      0.74460840470203     -0.00017304030119
| 26>   C   -0.02185536716425      1.44662046532696     -0.00024755378658
| 27>   C   -1.25871143457760      0.71015369723078     -0.00027752224613
| 28>   C   -1.23124720962662     -0.71176371609471     -0.00023763581900
| 29>   C   0.01359273097520     -1.40654093237051     -0.00016097171165
| 30>   H   3.39815608454313     -3.32294847346625      0.00005390672498
| 31>   H   1.28121152702388     -4.57152648014220     -0.00000734557412
| 32>   H   -1.17420741155428     -4.60677704363004     -0.00012152878190
| 33>   H   -3.32153525568072     -3.41384789533623     -0.00025347088516
| 34>   H   -4.58974390880012     -1.33370639611801     -0.00036609996964
| 35>   H   -4.67159769511159      1.13478572432735     -0.00044430770784
| 36>   H   1.23110317529550      4.65127592066200     -0.00029523630269
| 37>   H   3.36837678237072      3.40723854080834     -0.00016153332102
| 38>   *
| 39>                             ****END OF INPUT****
 Total Charge           Charge          ....    0
 Multiplicity           Mult            ....    1
 Number of Electrons    NEL             ....  152
Dispersion correction           -0.099843104
FINAL SINGLE POINT ENERGY      -918.935075672505
Dispersion correction            ... Starting D4
Dispersion correction           -0.099615715
FINAL SINGLE POINT ENERGY      -918.954528806916
Dispersion correction            ... Starting D4
Dispersion correction           -0.099482236
FINAL SINGLE POINT ENERGY      -918.958365011028
Dispersion correction            ... Starting D4
FINAL SINGLE POINT ENERGY      -918.959194773015
FINAL SINGLE POINT ENERGY      -918.959373237851
FINAL SINGLE POINT ENERGY      -918.959429227211
FINAL SINGLE POINT ENERGY      -918.959482426187
FINAL SINGLE POINT ENERGY      -918.959505780598
Dispersion correction           -0.099444932
FINAL SINGLE POINT ENERGY      -918.959516345018
Dispersion correction            ...
Dispersion correction           -0.099443609
FINAL SINGLE POINT ENERGY      -918.959518257340
Dispersion correction            ...
                    ***********************HURRAY********************

CARTESIAN COORDINATES (ANGSTROEM)
---------------------------------
  C      2.465878   -2.852096   -0.000008
  C      1.271972   -3.525781   -0.000040
  C      0.036454   -2.834505   -0.000117
  C     -1.201026   -3.536379   -0.000150
  C     -2.390433   -2.869340   -0.000223
  C     -2.436664   -1.447446   -0.000269
  C     -3.670803   -0.753713   -0.000345
  C     -3.718570    0.616284   -0.000389
  C     -2.525795    1.365224   -0.000358
  C     -2.348764    2.759819   -0.000393
  C     -1.294691    3.392277   -0.000364
  C      0.019683    2.892630   -0.000291
  C      1.233882    3.602805   -0.000258
  C      2.431663    2.931036   -0.000186
  C      2.458925    1.524673   -0.000143
  C      3.570609    0.663690   -0.000068
  C      3.580607   -0.565488   -0.000031
  C      2.483024   -1.443765   -0.000052
  C      1.252863   -0.691100   -0.000129
  C      1.237465    0.750069   -0.000172
  C     -0.004318    1.446549   -0.000249
  C     -1.242062    0.708164   -0.000280
  C     -1.218522   -0.714106   -0.000238
  C      0.027054   -1.412702   -0.000160
  H      3.407694   -3.386442    0.000051
  H      1.259277   -4.610255   -0.000007
  H     -1.179820   -4.620764   -0.000116
  H     -3.326693   -3.416852   -0.000248
  H     -4.589521   -1.330072   -0.000370
  H     -4.665580    1.141372   -0.000448
  H      1.204763    4.685138   -0.000292
  H      3.370311    3.470697   -0.000161

 Multiplicity           Mult            ....    1
 Number of Electrons    NEL             ....  152
 Basis Dimension        Dim             ....  480

ORBITAL ENERGIES
----------------

  NO   OCC          E(Eh)            E(eV)
   0   2.0000     -10.217323      -278.0275
   1   2.0000     -10.217307      -278.0271
   2   2.0000     -10.216761      -278.0122
   3   2.0000     -10.216758      -278.0121
   4   2.0000     -10.207130      -277.7501
   5   2.0000     -10.206701      -277.7385
   6   2.0000     -10.204142      -277.6688
   7   2.0000     -10.204136      -277.6686
   8   2.0000     -10.199427      -277.5405
   9   2.0000     -10.199010      -277.5292
  10   2.0000     -10.196079      -277.4494
  11   2.0000     -10.196071      -277.4492
  12   2.0000     -10.189496      -277.2703
  13   2.0000     -10.188871      -277.2533
  14   2.0000     -10.188030      -277.2304
  15   2.0000     -10.188027      -277.2303
  16   2.0000     -10.187212      -277.2081
  17   2.0000     -10.187209      -277.2081
  18   2.0000     -10.185579      -277.1637
  19   2.0000     -10.184908      -277.1454
  20   2.0000     -10.181367      -277.0491
  21   2.0000     -10.181358      -277.0488
  22   2.0000     -10.179396      -276.9954
  23   2.0000     -10.179386      -276.9952
  24   2.0000      -0.922324       -25.0977
  25   2.0000      -0.887819       -24.1588
  26   2.0000      -0.885849       -24.1052
  27   2.0000      -0.840369       -22.8676
  28   2.0000      -0.839307       -22.8387
  29   2.0000      -0.819139       -22.2899
  30   2.0000      -0.793451       -21.5909
  31   2.0000      -0.774944       -21.0873
  32   2.0000      -0.757252       -20.6059
  33   2.0000      -0.750866       -20.4321
  34   2.0000      -0.726170       -19.7601
  35   2.0000      -0.726134       -19.7591
  36   2.0000      -0.652113       -17.7449
  37   2.0000      -0.651827       -17.7371
  38   2.0000      -0.638134       -17.3645
  39   2.0000      -0.634633       -17.2692
  40   2.0000      -0.628309       -17.0971
  41   2.0000      -0.581569       -15.8253
  42   2.0000      -0.551567       -15.0089
  43   2.0000      -0.547235       -14.8910
  44   2.0000      -0.544155       -14.8072
  45   2.0000      -0.527946       -14.3662
  46   2.0000      -0.525065       -14.2878
  47   2.0000      -0.487979       -13.2786
  48   2.0000      -0.486566       -13.2401
  49   2.0000      -0.474317       -12.9068
  50   2.0000      -0.459165       -12.4945
  51   2.0000      -0.457400       -12.4465
  52   2.0000      -0.449552       -12.2329
  53   2.0000      -0.442084       -12.0297
  54   2.0000      -0.439981       -11.9725
  55   2.0000      -0.426189       -11.5972
  56   2.0000      -0.421945       -11.4817
  57   2.0000      -0.403019       -10.9667
  58   2.0000      -0.401724       -10.9315
  59   2.0000      -0.400375       -10.8947
  60   2.0000      -0.394396       -10.7321
  61   2.0000      -0.387231       -10.5371
  62   2.0000      -0.387118       -10.5340
  63   2.0000      -0.349962        -9.5229
  64   2.0000      -0.348954        -9.4955
  65   2.0000      -0.347539        -9.4570
  66   2.0000      -0.346343        -9.4245
  67   2.0000      -0.331254        -9.0139
  68   2.0000      -0.288771        -7.8579
  69   2.0000      -0.282786        -7.6950
  70   2.0000      -0.276083        -7.5126
  71   2.0000      -0.274450        -7.4682
  72   2.0000      -0.266511        -7.2521
  73   2.0000      -0.264553        -7.1988
  74   2.0000      -0.220346        -5.9959
  75   2.0000      -0.218172        -5.9368
  76   0.0000      -0.081073        -2.2061
  77   0.0000      -0.080972        -2.2034
  78   0.0000      -0.072898        -1.9837
  79   0.0000      -0.066635        -1.8132
  80   0.0000      -0.029450        -0.8014

MULLIKEN ATOMIC CHARGES
-----------------------
   0 C :   -0.030950
   1 C :   -0.063299
   2 C :   -0.023121
   3 C :   -0.050109
   4 C :   -0.049900
   5 C :   -0.023659
   6 C :   -0.062839
   7 C :   -0.030779
   8 C :   -0.014089
   9 C :   -0.022569
  10 C :   -0.015715
  11 C :   -0.017535
  12 C :   -0.041384
  13 C :   -0.041095
  14 C :   -0.017860
  15 C :   -0.015520
  16 C :   -0.022418
  17 C :   -0.014189
  18 C :   -0.011182
  19 C :   -0.019281
  20 C :   -0.019536
  21 C :   -0.011237
  22 C :   -0.043630
  23 C :   -0.043518
  24 H :    0.089622
  25 H :    0.086690
  26 H :    0.083673
  27 H :    0.083519
  28 H :    0.086549
  29 H :    0.089549
  30 H :    0.092941
  31 H :    0.092869
Sum of atomic charges:   -0.0000000

LOEWDIN ATOMIC CHARGES
----------------------
   0 C :    0.003672
   1 C :    0.012033
   2 C :   -0.018231
   3 C :    0.006169
   4 C :    0.006190
   5 C :   -0.018232
   6 C :    0.012065
   7 C :    0.003679
   8 C :   -0.022140
   9 C :   -0.012955
  10 C :   -0.013183
  11 C :   -0.023961
  12 C :    0.007943
  13 C :    0.007959
  14 C :   -0.023957
  15 C :   -0.013177
  16 C :   -0.012962
  17 C :   -0.022139
  18 C :    0.007527
  19 C :    0.009685
  20 C :    0.009668
  21 C :    0.007528
  22 C :    0.001572
  23 C :    0.001559
  24 H :    0.011908
  25 H :    0.008970
  26 H :    0.008122
  27 H :    0.008121
  28 H :    0.008953
  29 H :    0.011904
  30 H :    0.012860
  31 H :    0.012849

  Mayer bond orders larger than 0.100000
B(  0-C ,  1-C ) :   1.5076 B(  0-C , 17-C ) :   1.2657 B(  0-C , 24-H ) :   0.9681
B(  1-C ,  2-C ) :   1.2657 B(  1-C , 25-H ) :   0.9612 B(  2-C ,  3-C ) :   1.2305
B(  2-C , 23-C ) :   1.3444 B(  3-C ,  4-C ) :   1.5650 B(  3-C , 26-H ) :   0.9623
B(  4-C ,  5-C ) :   1.2306 B(  4-C , 27-H ) :   0.9624 B(  5-C ,  6-C ) :   1.2657
B(  5-C , 22-C ) :   1.3444 B(  6-C ,  7-C ) :   1.5075 B(  6-C , 28-H ) :   0.9612
B(  7-C ,  8-C ) :   1.2656 B(  7-C , 29-H ) :   0.9681 B(  8-C ,  9-C ) :   1.2135
B(  8-C , 21-C ) :   1.3034 B(  9-C , 10-C ) :   2.4003 B( 10-C , 11-C ) :   1.2214
B( 11-C , 12-C ) :   1.2783 B( 11-C , 20-C ) :   1.2987 B( 12-C , 13-C ) :   1.4823
B( 12-C , 30-H ) :   0.9669 B( 13-C , 14-C ) :   1.2786 B( 13-C , 31-H ) :   0.9670
B( 14-C , 15-C ) :   1.2217 B( 14-C , 19-C ) :   1.2982 B( 15-C , 16-C ) :   2.4003
B( 16-C , 17-C ) :   1.2136 B( 17-C , 18-C ) :   1.3033 B( 18-C , 19-C ) :   1.2248
B( 18-C , 23-C ) :   1.3096 B( 19-C , 20-C ) :   1.3156 B( 20-C , 21-C ) :   1.2242
B( 21-C , 22-C ) :   1.3101 B( 22-C , 23-C ) :   1.2895

Dispersion correction           -0.099443893
FINAL SINGLE POINT ENERGY      -918.959518485653

DIPOLE MOMENT
-------------
                                X             Y             Z
Electronic contribution:      3.72119       6.63507      -0.00004
Nuclear contribution   :     -4.13037      -7.36454       0.00004
                        -----------------------------------------
Total Dipole Moment    :     -0.40918      -0.72948       0.00000
                        -----------------------------------------
Magnitude (a.u.)       :      0.83640
Magnitude (Debye)      :      2.12596

Dispersion correction in the Hessian             ...

VIBRATIONAL FREQUENCIES
-----------------------

Scaling factor for frequencies =  1.000000000  (already applied!)

   0:         0.00 cm**-1
   1:         0.00 cm**-1
   2:         0.00 cm**-1
   3:         0.00 cm**-1
   4:         0.00 cm**-1
   5:         0.00 cm**-1
   6:        85.01 cm**-1
   7:        85.32 cm**-1
   8:       130.14 cm**-1
   9:       170.07 cm**-1
  10:       222.87 cm**-1
  11:       292.91 cm**-1
  12:       293.04 cm**-1
  13:       317.13 cm**-1
  14:       335.87 cm**-1
  15:       354.55 cm**-1
  16:       359.84 cm**-1
  17:       393.96 cm**-1
  18:       399.25 cm**-1
  19:       418.67 cm**-1
  20:       425.55 cm**-1
  21:       432.45 cm**-1
  22:       458.93 cm**-1
  23:       473.03 cm**-1
  24:       474.23 cm**-1
  25:       492.16 cm**-1
  26:       504.25 cm**-1
  27:       507.04 cm**-1
  28:       526.94 cm**-1
  29:       550.79 cm**-1
  30:       582.08 cm**-1
  31:       585.48 cm**-1
  32:       600.09 cm**-1
  33:       647.72 cm**-1
  34:       669.75 cm**-1
  35:       671.54 cm**-1
  36:       684.31 cm**-1
  37:       726.60 cm**-1
  38:       730.16 cm**-1
  39:       747.62 cm**-1
  40:       749.58 cm**-1
  41:       783.54 cm**-1
  42:       797.28 cm**-1
  43:       823.68 cm**-1
  44:       825.05 cm**-1
  45:       833.53 cm**-1
  46:       836.72 cm**-1
  47:       864.78 cm**-1
  48:       887.02 cm**-1
  49:       967.12 cm**-1
  50:       976.17 cm**-1
  51:       976.69 cm**-1
  52:       977.97 cm**-1
  53:       984.08 cm**-1
  54:       997.67 cm**-1
  55:      1032.88 cm**-1
  56:      1121.83 cm**-1
  57:      1140.59 cm**-1
  58:      1160.85 cm**-1
  59:      1171.92 cm**-1
  60:      1210.13 cm**-1
  61:      1227.39 cm**-1
  62:      1234.46 cm**-1
  63:      1237.23 cm**-1
  64:      1238.27 cm**-1
  65:      1262.10 cm**-1
  66:      1280.70 cm**-1
  67:      1300.63 cm**-1
  68:      1337.71 cm**-1
  69:      1351.09 cm**-1
  70:      1366.26 cm**-1
  71:      1372.26 cm**-1
  72:      1388.22 cm**-1
  73:      1404.63 cm**-1
  74:      1422.02 cm**-1
  75:      1456.30 cm**-1
  76:      1459.67 cm**-1
  77:      1471.57 cm**-1
  78:      1517.37 cm**-1
  79:      1529.47 cm**-1
  80:      1562.20 cm**-1
  81:      1574.65 cm**-1
  82:      1590.80 cm**-1
  83:      1624.84 cm**-1
  84:      1644.83 cm**-1
  85:      1655.34 cm**-1
  86:      2069.74 cm**-1
  87:      2088.23 cm**-1
  88:      3160.65 cm**-1
  89:      3168.01 cm**-1
  90:      3168.74 cm**-1
  91:      3178.99 cm**-1
  92:      3186.19 cm**-1
  93:      3194.90 cm**-1
  94:      3195.00 cm**-1
  95:      3201.58 cm**-1

IR SPECTRUM
-----------

 Mode   freq       eps      Int      T**2         TX        TY        TZ
       cm**-1   L/(mol*cm) km/mol    a.u.
----------------------------------------------------------------------------
  6:     85.01   0.000090    0.46  0.000331  ( 0.000054 -0.000004 -0.018198)
  7:     85.32   0.000000    0.00  0.000000  ( 0.000001 -0.000036 -0.000195)
  8:    130.14   0.000749    3.79  0.001797  ( 0.000012 -0.000005  0.042387)
  9:    170.07   0.000036    0.18  0.000067  (-0.000001 -0.000013 -0.008174)
 10:    222.87   0.000000    0.00  0.000000  ( 0.000000  0.000006 -0.000001)
 11:    292.91   0.000000    0.00  0.000000  ( 0.000009  0.000009 -0.000635)
 12:    293.04   0.000000    0.00  0.000000  (-0.000003  0.000013 -0.000213)
 13:    317.13   0.000290    1.47  0.000285  ( 0.000004 -0.000008  0.016890)
 14:    335.87   0.000000    0.00  0.000000  ( 0.000002  0.000009 -0.000012)
 15:    354.55   0.003154   15.94  0.002776  ( 0.025640  0.046031 -0.000000)
 16:    359.84   0.000638    3.23  0.000554  ( 0.020612 -0.011348  0.000001)
 17:    393.96   0.000146    0.74  0.000116  ( 0.009419 -0.005202  0.000001)
 18:    399.25   0.000185    0.94  0.000145  (-0.005785 -0.010548  0.000000)
 19:    418.67   0.000048    0.24  0.000036  ( 0.000002  0.000004  0.006007)
 20:    425.55   0.007075   35.75  0.005188  (-0.062666  0.035510 -0.000003)
 21:    432.45   0.000000    0.00  0.000000  (-0.000021 -0.000020 -0.000043)
 22:    458.93   0.017815   90.03  0.012114  (-0.053959 -0.095927  0.000001)
 23:    473.03   0.000000    0.00  0.000000  (-0.000008 -0.000008  0.000041)
 24:    474.23   0.000087    0.44  0.000057  (-0.003720 -0.006578  0.000000)
 25:    492.16   0.000218    1.10  0.000138  ( 0.005764  0.010257  0.000000)
 26:    504.25   0.000011    0.06  0.000007  (-0.000018  0.000021  0.002666)
 27:    507.04   0.000081    0.41  0.000050  (-0.006155  0.003478 -0.000001)
 28:    526.94   0.002371   11.98  0.001404  (-0.018302 -0.032697  0.000000)
 29:    550.79   0.000000    0.00  0.000000  (-0.000009 -0.000010  0.000020)
 30:    582.08   0.004130   20.87  0.002214  ( 0.000003  0.000002 -0.047052)
 31:    585.48   0.000937    4.74  0.000500  (-0.019488  0.010942 -0.000005)
 32:    600.09   0.000000    0.00  0.000000  (-0.000007  0.000000  0.000031)
 33:    647.72   0.000042    0.21  0.000020  (-0.000001 -0.000011 -0.004523)
 34:    669.75   0.000721    3.64  0.000336  ( 0.015978 -0.008982  0.000001)
 35:    671.54   0.000000    0.00  0.000000  (-0.000006  0.000010  0.000007)
 36:    684.31   0.000102    0.52  0.000047  (-0.005959  0.003316 -0.000000)
 37:    726.60   0.000000    0.00  0.000000  (-0.000012 -0.000008 -0.000004)
 38:    730.16   0.000682    3.44  0.000291  (-0.008324 -0.014900  0.000000)
 39:    747.62   0.000308    1.56  0.000129  (-0.009888  0.005551 -0.000001)
 40:    749.58   0.000235    1.19  0.000098  (-0.000025 -0.000008  0.009895)
 41:    783.54   0.000000    0.00  0.000000  ( 0.000014  0.000007  0.000044)
 42:    797.28   0.000526    2.66  0.000206  ( 0.000004 -0.000004  0.014350)
 43:    823.68   0.000025    0.12  0.000009  ( 0.001436  0.002701  0.000003)
 44:    825.05   0.000337    1.70  0.000128  (-0.009846  0.005529  0.000001)
 45:    833.53   0.005466   27.62  0.002046  (-0.000012 -0.000005  0.045238)
 46:    836.72   0.000000    0.00  0.000000  ( 0.000006  0.000000  0.000045)
 47:    864.78   0.016289   82.32  0.005878  ( 0.000009 -0.000010  0.076668)
 48:    887.02   0.000063    0.32  0.000022  (-0.004118  0.002308 -0.000001)
 49:    967.12   0.000000    0.00  0.000000  ( 0.000001 -0.000017  0.000018)
 50:    976.17   0.000034    0.17  0.000011  (-0.000022 -0.000003  0.003315)
 51:    976.69   0.000000    0.00  0.000000  ( 0.000003  0.000004 -0.000005)
 52:    977.97   0.000437    2.21  0.000139  ( 0.005763  0.010309 -0.000001)
 53:    984.08   0.000000    0.00  0.000000  (-0.000008  0.000018  0.000002)
 54:    997.67   0.000000    0.00  0.000000  (-0.000203  0.000097 -0.000001)
 55:   1032.88   0.000208    1.05  0.000063  (-0.003914 -0.006894  0.000000)
 56:   1121.83   0.002503   12.65  0.000696  (-0.012883 -0.023030  0.000000)
 57:   1140.59   0.001690    8.54  0.000462  ( 0.018755 -0.010523  0.000001)
 58:   1160.85   0.000494    2.50  0.000133  (-0.010044  0.005642 -0.000001)
 59:   1171.92   0.000246    1.24  0.000065  ( 0.003968  0.007047 -0.000000)
 60:   1210.13   0.000073    0.37  0.000019  (-0.002115 -0.003782  0.000000)
 61:   1227.39   0.000428    2.16  0.000109  (-0.005097 -0.009102  0.000000)
 62:   1234.46   0.000890    4.50  0.000225  ( 0.013091 -0.007325  0.000001)
 63:   1237.23   0.000054    0.27  0.000014  ( 0.001869  0.003196  0.000000)
 64:   1238.27   0.000305    1.54  0.000077  (-0.007616  0.004357 -0.000000)
 65:   1262.10   0.001181    5.97  0.000292  (-0.008376 -0.014891  0.000000)
 66:   1280.70   0.001079    5.45  0.000263  ( 0.014158 -0.007904  0.000001)
 67:   1300.63   0.000035    0.18  0.000008  ( 0.001401  0.002534 -0.000000)
 68:   1337.71   0.000426    2.15  0.000099  ( 0.004891  0.008681 -0.000000)
 69:   1351.09   0.000107    0.54  0.000025  (-0.004337  0.002450 -0.000000)
 70:   1366.26   0.000139    0.70  0.000032  ( 0.004909 -0.002747  0.000000)
 71:   1372.26   0.000033    0.17  0.000007  (-0.002377  0.001352 -0.000000)
 72:   1388.22   0.000550    2.78  0.000124  (-0.005442 -0.009691  0.000000)
 73:   1404.63   0.000001    0.00  0.000000  ( 0.000214  0.000401  0.000000)
 74:   1422.02   0.000102    0.52  0.000022  (-0.002339 -0.004122  0.000000)
 75:   1456.30   0.000001    0.00  0.000000  (-0.000207 -0.000345 -0.000000)
 76:   1459.67   0.000025    0.13  0.000005  (-0.002039  0.001135 -0.000000)
 77:   1471.57   0.000845    4.27  0.000179  ( 0.011677 -0.006541  0.000001)
 78:   1517.37   0.000300    1.52  0.000062  ( 0.006864 -0.003831  0.000000)
 79:   1529.47   0.002808   14.19  0.000573  (-0.011701 -0.020883  0.000000)
 80:   1562.20   0.002431   12.28  0.000486  (-0.010835 -0.019187  0.000000)
 81:   1574.65   0.006730   34.01  0.001334  (-0.031859  0.017855 -0.000002)
 82:   1590.80   0.001809    9.14  0.000355  (-0.016447  0.009179 -0.000001)
 83:   1624.84   0.001702    8.60  0.000327  (-0.008838 -0.015771  0.000000)
 84:   1644.83   0.000352    1.78  0.000067  (-0.007139  0.003987 -0.000000)
 85:   1655.34   0.003968   20.05  0.000748  (-0.013421 -0.023831  0.000000)
 86:   2069.74   0.000008    0.04  0.000001  (-0.000522 -0.000965  0.000000)
 87:   2088.23   0.000122    0.61  0.000018  ( 0.003723 -0.002076  0.000000)
 88:   3160.65   0.000206    1.04  0.000020  (-0.003898  0.002272 -0.000000)
 89:   3168.01   0.001349    6.82  0.000133  ( 0.004393  0.010658 -0.000000)
 90:   3168.74   0.001061    5.36  0.000105  ( 0.009490 -0.003805  0.000001)
 91:   3178.99   0.006734   34.03  0.000661  ( 0.012581  0.022421 -0.000000)
 92:   3186.19   0.000232    1.17  0.000023  (-0.004113  0.002408 -0.000000)
 93:   3194.90   0.004493   22.70  0.000439  ( 0.018371 -0.010067  0.000001)
 94:   3195.00   0.001128    5.70  0.000110  ( 0.004807  0.009331 -0.000000)
 95:   3201.58   0.002270   11.47  0.000221  ( 0.007282  0.012969 -0.000000)

--------------------------
THERMOCHEMISTRY AT 298.15K
--------------------------

Temperature         ... 298.15 K
Pressure            ... 1.00 atm
Total Mass          ... 296.33 AMU

Throughout the following assumptions are being made:
  (1) The electronic state is orbitally nondegenerate
  (2) There are no thermally accessible electronically excited states
  (3) Hindered rotations indicated by low frequency modes are not
      treated as such but are treated as vibrations and this may
      cause some error
  (4) All equations used are the standard statistical mechanics
      equations for an ideal gas
  (5) All vibrations are strictly harmonic

freq.      85.01  E(vib)   ...       0.48
freq.      85.32  E(vib)   ...       0.48
freq.     130.14  E(vib)   ...       0.43
freq.     170.07  E(vib)   ...       0.38
freq.     222.87  E(vib)   ...       0.33
freq.     292.91  E(vib)   ...       0.27
freq.     293.04  E(vib)   ...       0.27
freq.     317.13  E(vib)   ...       0.25
freq.     335.87  E(vib)   ...       0.24
freq.     354.55  E(vib)   ...       0.22
freq.     359.84  E(vib)   ...       0.22
freq.     393.96  E(vib)   ...       0.20
freq.     399.25  E(vib)   ...       0.19
freq.     418.67  E(vib)   ...       0.18
freq.     425.55  E(vib)   ...       0.18
freq.     432.45  E(vib)   ...       0.18
freq.     458.93  E(vib)   ...       0.16
freq.     473.03  E(vib)   ...       0.15
freq.     474.23  E(vib)   ...       0.15
freq.     492.16  E(vib)   ...       0.14
freq.     504.25  E(vib)   ...       0.14
freq.     507.04  E(vib)   ...       0.14
freq.     526.94  E(vib)   ...       0.13
freq.     550.79  E(vib)   ...       0.12
freq.     582.08  E(vib)   ...       0.11
freq.     585.48  E(vib)   ...       0.11
freq.     600.09  E(vib)   ...       0.10
freq.     647.72  E(vib)   ...       0.09
freq.     669.75  E(vib)   ...       0.08
freq.     671.54  E(vib)   ...       0.08
freq.     684.31  E(vib)   ...       0.07
freq.     726.60  E(vib)   ...       0.06
freq.     730.16  E(vib)   ...       0.06
freq.     747.62  E(vib)   ...       0.06
freq.     749.58  E(vib)   ...       0.06
freq.     783.54  E(vib)   ...       0.05
freq.     797.28  E(vib)   ...       0.05
freq.     823.68  E(vib)   ...       0.05
freq.     825.05  E(vib)   ...       0.04
freq.     833.53  E(vib)   ...       0.04
freq.     836.72  E(vib)   ...       0.04
freq.     864.78  E(vib)   ...       0.04
freq.     887.02  E(vib)   ...       0.04
freq.     967.12  E(vib)   ...       0.03
freq.     976.17  E(vib)   ...       0.03
freq.     976.69  E(vib)   ...       0.03
freq.     977.97  E(vib)   ...       0.03
freq.     984.08  E(vib)   ...       0.02
freq.     997.67  E(vib)   ...       0.02
freq.    1032.88  E(vib)   ...       0.02
freq.    1121.83  E(vib)   ...       0.01
freq.    1140.59  E(vib)   ...       0.01
freq.    1160.85  E(vib)   ...       0.01
freq.    1171.92  E(vib)   ...       0.01
freq.    1210.13  E(vib)   ...       0.01
freq.    1227.39  E(vib)   ...       0.01
freq.    1234.46  E(vib)   ...       0.01
freq.    1237.23  E(vib)   ...       0.01
freq.    1238.27  E(vib)   ...       0.01
freq.    1262.10  E(vib)   ...       0.01
freq.    1280.70  E(vib)   ...       0.01
freq.    1300.63  E(vib)   ...       0.01
freq.    1337.71  E(vib)   ...       0.01
freq.    1351.09  E(vib)   ...       0.01
freq.    1366.26  E(vib)   ...       0.01
freq.    1372.26  E(vib)   ...       0.01
freq.    1388.22  E(vib)   ...       0.00
freq.    1404.63  E(vib)   ...       0.00
freq.    1422.02  E(vib)   ...       0.00
freq.    1456.30  E(vib)   ...       0.00
freq.    1459.67  E(vib)   ...       0.00
freq.    1471.57  E(vib)   ...       0.00
freq.    1517.37  E(vib)   ...       0.00
freq.    1529.47  E(vib)   ...       0.00
freq.    1562.20  E(vib)   ...       0.00
freq.    1574.65  E(vib)   ...       0.00
freq.    1590.80  E(vib)   ...       0.00
freq.    1624.84  E(vib)   ...       0.00
freq.    1644.83  E(vib)   ...       0.00
freq.    1655.34  E(vib)   ...       0.00
freq.    2069.74  E(vib)   ...       0.00
freq.    2088.23  E(vib)   ...       0.00
freq.    3160.65  E(vib)   ...       0.00
freq.    3168.01  E(vib)   ...       0.00
freq.    3168.74  E(vib)   ...       0.00
freq.    3178.99  E(vib)   ...       0.00
freq.    3186.19  E(vib)   ...       0.00
freq.    3194.90  E(vib)   ...       0.00
freq.    3195.00  E(vib)   ...       0.00
freq.    3201.58  E(vib)   ...       0.00

------------
INNER ENERGY
------------

The inner energy is: U= E(el) + E(ZPE) + E(vib) + E(rot) + E(trans)
    E(el)   - is the total energy from the electronic structure calculation
              = E(kin-el) + E(nuc-el) + E(el-el) + E(nuc-nuc)
    E(ZPE)  - the the zero temperature vibrational energy from the frequency calculation
    E(vib)  - the the finite temperature correction to E(ZPE) due to population
              of excited vibrational states
    E(rot)  - is the rotational thermal energy
    E(trans)- is the translational thermal energy

Summary of contributions to the inner energy U:
Electronic energy                ...   -918.95951849 Eh
Zero point energy                ...      0.22916201 Eh     143.80 kcal/mol
Thermal vibrational correction   ...      0.01149800 Eh       7.22 kcal/mol
Thermal rotational correction    ...      0.00141627 Eh       0.89 kcal/mol
Thermal translational correction ...      0.00141627 Eh       0.89 kcal/mol
-----------------------------------------------------------------------
Total thermal energy                   -918.71602594 Eh

Summary of corrections to the electronic energy:
(perhaps to be used in another calculation)
Total thermal correction                  0.01433054 Eh       8.99 kcal/mol
Non-thermal (ZPE) correction              0.22916201 Eh     143.80 kcal/mol
-----------------------------------------------------------------------
Total correction                          0.24349255 Eh     152.79 kcal/mol

--------
ENTHALPY
--------

The enthalpy is H = U + kB*T
                kB is Boltzmann's constant
Total free energy                 ...   -918.71602594 Eh
Thermal Enthalpy correction       ...      0.00094421 Eh       0.59 kcal/mol
-----------------------------------------------------------------------
Total Enthalpy                    ...   -918.71508173 Eh

Note: Rotational entropy computed according to Herzberg
Infrared and Raman Spectra, Chapter V,1, Van Nostrand Reinhold, 1945
Point Group:  Cs, Symmetry Number:   1
Rotational constants in cm-1:     0.011867     0.011247     0.005774

Vibrational entropy computed according to the QRRHO of S. Grimme
Chem.Eur.J. 2012 18 9955

-------

                             ****ORCA TERMINATED NORMALLY****
TOTAL RUN TIME: 0 days 1 hours 22 minutes 5 seconds 813 msec
