                         Program Version 5.0.4 -  RELEASE  -
|  1> !M062x def2-tzvp opt freq tightscf
|  2>
|  3> %freq
|  4> Temp 298.15,10,20,50,100,6000,8000,10000
|  5> end
|  6>
|  7> %maxcore 4000
|  8> %pal
|  9> nprocs 3
| 10> end
| 11>
| 12> %geom
| 13>  maxiter 2000
| 14> end
| 15>
| 16> * xyz 0 1
| 17>   C   2.46362427987247     -2.85071308273857     -0.00000218907091
| 18>   C   1.27719400513090     -3.52585311672403     -0.00003902795947
| 19>   C   0.05064934326115     -2.82613554872827     -0.00011828018749
| 20>   C   -1.19925193688694     -3.46606389677068     -0.00015928151260
| 21>   C   -2.39885271805658     -2.87183824187673     -0.00023283554738
| 22>   C   -2.43518053153382     -1.44080024452875     -0.00027277196623
| 23>   C   -3.66777674509120     -0.75191121775761     -0.00034379554662
| 24>   C   -3.71279324924276      0.61270000430768     -0.00038290810371
| 25>   C   -2.51870888891228      1.35470401292599     -0.00035207453727
| 26>   C   -2.33852946574720      2.75004532075493     -0.00038523866368
| 27>   C   -1.29227857579710      3.37936032270345     -0.00036005870682
| 28>   C   0.02296635156368      2.87874227377718     -0.00029143038758
| 29>   C   1.23211767469076      3.59211777508479     -0.00026457178571
| 30>   C   2.42594730830480      2.92563510630820     -0.00019121984698
| 31>   C   2.44893445959464      1.52227723319545     -0.00014614397662
| 32>   C   3.55845924150033      0.65762020353451     -0.00006795876215
| 33>   C   3.57066637986837     -0.56331157183495     -0.00002324805222
| 34>   C   2.47403114247392     -1.44414615823703     -0.00004617494814
| 35>   C   1.25557023434205     -0.69183165762109     -0.00012491861115
| 36>   C   1.23800989899349      0.75081893774134     -0.00017659337158
| 37>   C   -0.00359548669936      1.44369816359284     -0.00024809051538
| 38>   C   -1.24385874208543      0.70472511229996     -0.00028011039122
| 39>   C   -1.22033926149096     -0.71624674943317     -0.00023589301594
| 40>   C   0.03056944314590     -1.40895937212992     -0.00016349124726
| 41>   H   3.40592714860256     -3.38099880595279      0.00006084796734
| 42>   H   1.25543248807529     -4.60779790743838     -0.00000593698860
| 43>   H   -3.32874432396662     -3.42840544994019     -0.00026138694326
| 44>   H   -4.58380467774224     -1.32989113444890     -0.00036599782084
| 45>   H   1.19941226127863      4.67287271493635     -0.00030009286005
| 46>   H   3.36338199069149      3.46449630946482     -0.00016807868239
| 47> **                         ****END OF INPUT****
 Total Charge           Charge          ....    0
 Multiplicity           Mult            ....    1
 Number of Electrons    NEL             ....  150
FINAL SINGLE POINT ENERGY      -917.738501411034
FINAL SINGLE POINT ENERGY      -917.745331096509
FINAL SINGLE POINT ENERGY      -917.749893450906
FINAL SINGLE POINT ENERGY      -917.750127389550
FINAL SINGLE POINT ENERGY      -917.750195086830
FINAL SINGLE POINT ENERGY      -917.750216859394
FINAL SINGLE POINT ENERGY      -917.750222018487
                    ***********************HURRAY********************

CARTESIAN COORDINATES (ANGSTROEM)
---------------------------------
  C      2.458011   -2.848741   -0.000005
  C      1.268587   -3.520472   -0.000037
  C      0.045577   -2.813474   -0.000116
  C     -1.223680   -3.389705   -0.000158
  C     -2.436464   -2.899769   -0.000229
  C     -2.418269   -1.433720   -0.000271
  C     -3.710595   -0.788047   -0.000351
  C     -3.633518    0.534309   -0.000383
  C     -2.517859    1.351721   -0.000355
  C     -2.334887    2.745892   -0.000385
  C     -1.290664    3.380425   -0.000359
  C      0.026934    2.883727   -0.000287
  C      1.237217    3.597645   -0.000261
  C      2.432944    2.933488   -0.000191
  C      2.461311    1.529332   -0.000147
  C      3.566589    0.658478   -0.000073
  C      3.578587   -0.562815   -0.000028
  C      2.479245   -1.441700   -0.000049
  C      1.266540   -0.682348   -0.000125
  C      1.251896    0.759168   -0.000175
  C      0.008782    1.450504   -0.000247
  C     -1.226824    0.709857   -0.000277
  C     -1.212664   -0.709465   -0.000236
  C      0.039668   -1.392706   -0.000161
  H      3.396415   -3.385778    0.000056
  H      1.241168   -4.601472   -0.000003
  H     -3.397948   -3.401739   -0.000261
  H     -4.599094   -1.411830   -0.000373
  H      1.203724    4.678376   -0.000295
  H      3.368451    3.475767   -0.000170

 Multiplicity           Mult            ....    1
 Number of Electrons    NEL             ....  150
 Basis Dimension        Dim             ....  780

ORBITAL ENERGIES
----------------

  NO   OCC          E(Eh)            E(eV)
   0   2.0000     -10.603750      -288.5427
   1   2.0000     -10.601311      -288.4763
   2   2.0000     -10.600545      -288.4555
   3   2.0000     -10.597809      -288.3811
   4   2.0000     -10.597648      -288.3767
   5   2.0000     -10.590659      -288.1865
   6   2.0000     -10.590427      -288.1802
   7   2.0000     -10.589203      -288.1469
   8   2.0000     -10.588393      -288.1248
   9   2.0000     -10.587270      -288.0943
  10   2.0000     -10.586534      -288.0742
  11   2.0000     -10.586162      -288.0641
  12   2.0000     -10.583193      -287.9833
  13   2.0000     -10.581067      -287.9255
  14   2.0000     -10.577726      -287.8346
  15   2.0000     -10.574167      -287.7377
  16   2.0000     -10.572405      -287.6898
  17   2.0000     -10.569213      -287.6029
  18   2.0000     -10.568470      -287.5827
  19   2.0000     -10.567734      -287.5626
  20   2.0000     -10.562646      -287.4242
  21   2.0000     -10.561027      -287.3802
  22   2.0000     -10.559880      -287.3489
  23   2.0000     -10.556039      -287.2444
  24   2.0000      -1.045108       -28.4388
  25   2.0000      -1.007583       -27.4177
  26   2.0000      -1.005368       -27.3575
  27   2.0000      -0.955556       -26.0020
  28   2.0000      -0.953723       -25.9521
  29   2.0000      -0.929928       -25.3046
  30   2.0000      -0.903971       -24.5983
  31   2.0000      -0.882095       -24.0030
  32   2.0000      -0.863193       -23.4887
  33   2.0000      -0.853791       -23.2328
  34   2.0000      -0.832989       -22.6668
  35   2.0000      -0.822645       -22.3853
  36   2.0000      -0.749155       -20.3855
  37   2.0000      -0.744865       -20.2688
  38   2.0000      -0.732584       -19.9346
  39   2.0000      -0.716684       -19.5020
  40   2.0000      -0.713218       -19.4076
  41   2.0000      -0.667847       -18.1730
  42   2.0000      -0.639733       -17.4080
  43   2.0000      -0.630263       -17.1503
  44   2.0000      -0.615143       -16.7389
  45   2.0000      -0.602497       -16.3948
  46   2.0000      -0.598085       -16.2747
  47   2.0000      -0.565187       -15.3795
  48   2.0000      -0.555892       -15.1266
  49   2.0000      -0.551308       -15.0018
  50   2.0000      -0.533684       -14.5223
  51   2.0000      -0.533491       -14.5170
  52   2.0000      -0.528836       -14.3904
  53   2.0000      -0.518070       -14.0974
  54   2.0000      -0.512251       -13.9390
  55   2.0000      -0.498205       -13.5569
  56   2.0000      -0.488665       -13.2973
  57   2.0000      -0.488073       -13.2811
  58   2.0000      -0.479423       -13.0458
  59   2.0000      -0.471119       -12.8198
  60   2.0000      -0.458777       -12.4840
  61   2.0000      -0.433302       -11.7907
  62   2.0000      -0.431380       -11.7384
  63   2.0000      -0.427713       -11.6387
  64   2.0000      -0.426530       -11.6065
  65   2.0000      -0.406498       -11.0614
  66   2.0000      -0.360447        -9.8082
  67   2.0000      -0.347562        -9.4577
  68   2.0000      -0.341409        -9.2902
  69   2.0000      -0.338457        -9.2099
  70   2.0000      -0.332618        -9.0510
  71   2.0000      -0.328881        -8.9493
  72   2.0000      -0.276447        -7.5225
  73   2.0000      -0.273487        -7.4420
  74   2.0000      -0.232161        -6.3174
  75   0.0000      -0.130834        -3.5602
  76   0.0000      -0.060355        -1.6423
  77   0.0000      -0.049770        -1.3543
  78   0.0000      -0.048465        -1.3188
  79   0.0000      -0.041488        -1.1290

MULLIKEN ATOMIC CHARGES
-----------------------
   0 C :   -0.210613
   1 C :   -0.198375
   2 C :    0.069384
   3 C :    0.049139
   4 C :   -0.330767
   5 C :    0.252599
   6 C :   -0.268349
   7 C :   -0.070755
   8 C :    0.052921
   9 C :   -0.094344
  10 C :   -0.031745
  11 C :    0.076647
  12 C :   -0.195806
  13 C :   -0.199076
  14 C :    0.088491
  15 C :   -0.061737
  16 C :   -0.065112
  17 C :    0.081250
  18 C :    0.005449
  19 C :    0.023024
  20 C :    0.021896
  21 C :    0.025495
  22 C :   -0.068831
  23 C :    0.130808
  24 H :    0.151975
  25 H :    0.149297
  26 H :    0.161805
  27 H :    0.150924
  28 H :    0.151955
  29 H :    0.152453
Sum of atomic charges:   -0.0000000

LOEWDIN ATOMIC CHARGES
----------------------
   0 C :   -0.092823
   1 C :   -0.082264
   2 C :   -0.110877
   3 C :    0.062914
   4 C :   -0.122797
   5 C :   -0.037535
   6 C :   -0.133134
   7 C :    0.029198
   8 C :   -0.116269
   9 C :    0.028131
  10 C :    0.013782
  11 C :   -0.091752
  12 C :   -0.088889
  13 C :   -0.088871
  14 C :   -0.093582
  15 C :    0.021008
  16 C :    0.017126
  17 C :   -0.089447
  18 C :    0.009528
  19 C :    0.012052
  20 C :    0.009532
  21 C :    0.019617
  22 C :   -0.018684
  23 C :    0.004811
  24 H :    0.156234
  25 H :    0.155840
  26 H :    0.158933
  27 H :    0.155486
  28 H :    0.156425
  29 H :    0.156308

  Mayer bond orders larger than 0.100000
B(  0-C ,  1-C ) :   1.5437 B(  0-C , 17-C ) :   1.2875 B(  0-C , 24-H ) :   0.9477
B(  1-C ,  2-C ) :   1.2654 B(  1-C , 25-H ) :   0.9514 B(  2-C ,  3-C ) :   1.1816
B(  2-C , 23-C ) :   1.2810 B(  3-C ,  4-C ) :   1.9296 B(  3-C ,  7-C ) :   0.5167
B(  4-C ,  5-C ) :   0.9571 B(  4-C , 26-H ) :   0.9122 B(  5-C ,  6-C ) :   1.0209
B(  5-C , 22-C ) :   1.3946 B(  6-C ,  7-C ) :   1.8047 B(  6-C , 27-H ) :   0.9348
B(  7-C ,  8-C ) :   1.2433 B(  8-C ,  9-C ) :   1.1755 B(  8-C , 21-C ) :   1.2672
B(  9-C , 10-C ) :   2.4863 B( 10-C , 11-C ) :   1.1529 B( 11-C , 12-C ) :   1.2954
B( 11-C , 20-C ) :   1.2773 B( 12-C , 13-C ) :   1.5262 B( 12-C , 28-H ) :   0.9515
B( 13-C , 14-C ) :   1.2941 B( 13-C , 29-H ) :   0.9505 B( 14-C , 15-C ) :   1.1491
B( 14-C , 19-C ) :   1.2807 B( 15-C , 16-C ) :   2.5446 B( 16-C , 17-C ) :   1.1493
B( 17-C , 18-C ) :   1.2961 B( 18-C , 19-C ) :   1.2208 B( 18-C , 23-C ) :   1.1463
B( 19-C , 20-C ) :   1.1416 B( 20-C , 21-C ) :   1.2125 B( 21-C , 22-C ) :   1.1897
B( 22-C , 23-C ) :   1.1628

FINAL SINGLE POINT ENERGY      -917.750222734464

DIPOLE MOMENT
-------------
                                X             Y             Z
Electronic contribution:     -0.65371       3.61818      -0.00013
Nuclear contribution   :      1.08761      -4.28167       0.00016
                        -----------------------------------------
Total Dipole Moment    :      0.43390      -0.66349       0.00003
                        -----------------------------------------
Magnitude (a.u.)       :      0.79277
Magnitude (Debye)      :      2.01507

VIBRATIONAL FREQUENCIES
-----------------------

Scaling factor for frequencies =  1.000000000  (already applied!)

   0:         0.00 cm**-1
   1:         0.00 cm**-1
   2:         0.00 cm**-1
   3:         0.00 cm**-1
   4:         0.00 cm**-1
   5:         0.00 cm**-1
   6:        77.12 cm**-1
   7:        85.26 cm**-1
   8:       126.12 cm**-1
   9:       167.60 cm**-1
  10:       218.38 cm**-1
  11:       272.49 cm**-1
  12:       295.58 cm**-1
  13:       318.14 cm**-1
  14:       330.39 cm**-1
  15:       345.48 cm**-1
  16:       359.25 cm**-1
  17:       382.92 cm**-1
  18:       393.48 cm**-1
  19:       406.89 cm**-1
  20:       427.24 cm**-1
  21:       446.16 cm**-1
  22:       450.75 cm**-1
  23:       468.50 cm**-1
  24:       470.74 cm**-1
  25:       479.77 cm**-1
  26:       496.76 cm**-1
  27:       505.86 cm**-1
  28:       525.79 cm**-1
  29:       540.81 cm**-1
  30:       557.31 cm**-1
  31:       570.51 cm**-1
  32:       599.05 cm**-1
  33:       608.99 cm**-1
  34:       648.42 cm**-1
  35:       664.71 cm**-1
  36:       675.78 cm**-1
  37:       695.17 cm**-1
  38:       717.65 cm**-1
  39:       759.03 cm**-1
  40:       800.57 cm**-1
  41:       811.48 cm**-1
  42:       819.00 cm**-1
  43:       825.35 cm**-1
  44:       842.57 cm**-1
  45:       852.35 cm**-1
  46:       855.63 cm**-1
  47:       859.74 cm**-1
  48:       882.12 cm**-1
  49:       962.90 cm**-1
  50:       968.15 cm**-1
  51:       999.33 cm**-1
  52:      1000.17 cm**-1
  53:      1019.51 cm**-1
  54:      1040.89 cm**-1
  55:      1107.37 cm**-1
  56:      1137.02 cm**-1
  57:      1154.66 cm**-1
  58:      1194.23 cm**-1
  59:      1217.05 cm**-1
  60:      1232.83 cm**-1
  61:      1244.28 cm**-1
  62:      1258.19 cm**-1
  63:      1268.23 cm**-1
  64:      1302.73 cm**-1
  65:      1315.94 cm**-1
  66:      1332.76 cm**-1
  67:      1362.44 cm**-1
  68:      1384.41 cm**-1
  69:      1396.18 cm**-1
  70:      1416.59 cm**-1
  71:      1427.67 cm**-1
  72:      1447.55 cm**-1
  73:      1484.79 cm**-1
  74:      1491.10 cm**-1
  75:      1506.81 cm**-1
  76:      1582.97 cm**-1
  77:      1591.94 cm**-1
  78:      1611.00 cm**-1
  79:      1655.82 cm**-1
  80:      1664.76 cm**-1
  81:      1728.81 cm**-1
  82:      2120.71 cm**-1
  83:      2141.84 cm**-1
  84:      3165.61 cm**-1
  85:      3189.55 cm**-1
  86:      3230.33 cm**-1
  87:      3231.09 cm**-1
  88:      3245.18 cm**-1
  89:      3245.20 cm**-1

IR SPECTRUM
-----------

 Mode   freq       eps      Int      T**2         TX        TY        TZ
       cm**-1   L/(mol*cm) km/mol    a.u.
----------------------------------------------------------------------------
  6:     77.12   0.000079    0.40  0.000320  (-0.000028 -0.000000  0.017883)
  7:     85.26   0.000121    0.61  0.000441  ( 0.000043 -0.000023 -0.021010)
  8:    126.12   0.000224    1.13  0.000554  ( 0.000017  0.000008 -0.023535)
  9:    167.60   0.000099    0.50  0.000184  ( 0.000044  0.000037  0.013580)
 10:    218.38   0.000543    2.74  0.000776  (-0.000034 -0.000050  0.027850)
 11:    272.49   0.000379    1.91  0.000434  ( 0.000012 -0.000009 -0.020821)
 12:    295.58   0.000006    0.03  0.000006  (-0.000004  0.000017 -0.002495)
 13:    318.14   0.000154    0.78  0.000151  (-0.000048 -0.000017  0.012307)
 14:    330.39   0.059099  298.66  0.055821  ( 0.124448 -0.200833  0.000012)
 15:    345.48   0.000031    0.15  0.000028  (-0.000020 -0.000003 -0.005255)
 16:    359.25   0.003072   15.53  0.002669  (-0.012815  0.050046 -0.000002)
 17:    382.92   0.009693   48.99  0.007900  ( 0.019499 -0.086714  0.000003)
 18:    393.48   0.026485  133.84  0.021004  ( 0.021953 -0.143257  0.000004)
 19:    406.89   0.013047   65.93  0.010006  (-0.021446  0.097704 -0.000002)
 20:    427.24   0.000246    1.24  0.000180  (-0.000033  0.000007  0.013402)
 21:    446.16   0.002126   10.75  0.001487  ( 0.000004 -0.000001  0.038565)
 22:    450.75   0.031828  160.85  0.022035  (-0.060757  0.135440 -0.000003)
 23:    468.50   0.001146    5.79  0.000763  ( 0.000021  0.000025  0.027629)
 24:    470.74   0.012200   61.66  0.008088  (-0.045339 -0.077668  0.000015)
 25:    479.77   0.000001    0.01  0.000001  ( 0.000006 -0.000019 -0.000873)
 26:    496.76   0.000950    4.80  0.000597  (-0.022285 -0.010019  0.000000)
 27:    505.86   0.000591    2.98  0.000364  ( 0.011717  0.015067  0.000000)
 28:    525.79   0.004731   23.91  0.002808  (-0.006007  0.052649 -0.000002)
 29:    540.81   0.000120    0.61  0.000069  (-0.000001 -0.000017 -0.008331)
 30:    557.31   0.053319  269.45  0.029856  ( 0.108979 -0.134087  0.000008)
 31:    570.51   0.001204    6.08  0.000658  ( 0.000011  0.000030 -0.025661)
 32:    599.05   0.032824  165.88  0.017099  ( 0.073807 -0.107940  0.000006)
 33:    608.99   0.000616    3.11  0.000316  ( 0.000021  0.000005  0.017771)
 34:    648.42   0.001374    6.95  0.000661  (-0.011514  0.022996 -0.000001)
 35:    664.71   0.000000    0.00  0.000000  ( 0.000016  0.000022  0.000472)
 36:    675.78   0.000114    0.58  0.000053  (-0.000021  0.000009 -0.007266)
 37:    695.17   0.011591   58.58  0.005203  ( 0.036853 -0.062011  0.000003)
 38:    717.65   0.002929   14.80  0.001274  (-0.022366  0.027811 -0.000001)
 39:    759.03   0.000281    1.42  0.000116  ( 0.000019 -0.000014 -0.010755)
 40:    800.57   0.000227    1.15  0.000088  (-0.000008  0.000012 -0.009406)
 41:    811.48   0.034502  174.36  0.013268  (-0.057357  0.099892 -0.000006)
 42:    819.00   0.000062    0.32  0.000024  ( 0.000034 -0.000057  0.004874)
 43:    825.35   0.000047    0.24  0.000018  ( 0.003178 -0.002740  0.000005)
 44:    842.57   0.001243    6.28  0.000460  (-0.006426  0.020472 -0.000014)
 45:    852.35   0.005697   28.79  0.002086  (-0.000018 -0.000020 -0.045671)
 46:    855.63   0.010172   51.41  0.003710  (-0.000000  0.000026  0.060910)
 47:    859.74   0.001862    9.41  0.000676  (-0.000012 -0.000012  0.025996)
 48:    882.12   0.000010    0.05  0.000004  ( 0.000053 -0.000032 -0.001926)
 49:    962.90   0.002232   11.28  0.000723  (-0.019734 -0.018275 -0.000000)
 50:    968.15   0.017565   88.77  0.005662  ( 0.040770 -0.063243  0.000007)
 51:    999.33   0.000007    0.04  0.000002  ( 0.000014  0.000028  0.001493)
 52:   1000.17   0.000006    0.03  0.000002  (-0.000007 -0.000035  0.001412)
 53:   1019.51   0.002952   14.92  0.000903  (-0.004825  0.029668 -0.000000)
 54:   1040.89   0.004047   20.45  0.001213  ( 0.015654 -0.031119  0.000001)
 55:   1107.37   0.019857  100.35  0.005596  (-0.049208  0.056341 -0.000005)
 56:   1137.02   0.003665   18.52  0.001006  ( 0.004421  0.031407 -0.000000)
 57:   1154.66   0.005573   28.16  0.001506  ( 0.029116 -0.025658  0.000001)
 58:   1194.23   0.000189    0.95  0.000049  ( 0.002824  0.006428  0.000001)
 59:   1217.05   0.004749   24.00  0.001218  ( 0.009123 -0.033682  0.000001)
 60:   1232.83   0.006032   30.49  0.001527  (-0.002388  0.039004 -0.000002)
 61:   1244.28   0.002219   11.21  0.000557  ( 0.021024 -0.010700  0.000001)
 62:   1258.19   0.001508    7.62  0.000374  ( 0.014737 -0.012526  0.000001)
 63:   1268.23   0.001049    5.30  0.000258  (-0.002193  0.015912 -0.000001)
 64:   1302.73   0.000009    0.05  0.000002  (-0.001407 -0.000539 -0.000000)
 65:   1315.94   0.000310    1.57  0.000073  (-0.007659 -0.003846  0.000000)
 66:   1332.76   0.004049   20.46  0.000948  (-0.024127  0.019128 -0.000001)
 67:   1362.44   0.000625    3.16  0.000143  (-0.002012  0.011790 -0.000001)
 68:   1384.41   0.000157    0.80  0.000035  (-0.005946  0.000370 -0.000000)
 69:   1396.18   0.000251    1.27  0.000056  (-0.003060  0.006838  0.000000)
 70:   1416.59   0.002059   10.41  0.000454  ( 0.011643 -0.017834  0.000001)
 71:   1427.67   0.001801    9.10  0.000394  ( 0.004953  0.019215 -0.000001)
 72:   1447.55   0.000938    4.74  0.000202  (-0.004135 -0.013603  0.000001)
 73:   1484.79   0.000128    0.65  0.000027  ( 0.005185  0.000104  0.000000)
 74:   1491.10   0.000005    0.02  0.000001  ( 0.000807  0.000592  0.000000)
 75:   1506.81   0.001109    5.60  0.000230  ( 0.004069 -0.014596  0.000001)
 76:   1582.97   0.006451   32.60  0.001272  ( 0.028252  0.021763  0.000001)
 77:   1591.94   0.005024   25.39  0.000985  ( 0.015497 -0.027290  0.000002)
 78:   1611.00   0.006373   32.21  0.001234  (-0.030872  0.016774 -0.000001)
 79:   1655.82   0.006574   33.22  0.001239  (-0.018686 -0.029829  0.000001)
 80:   1664.76   0.018020   91.07  0.003378  ( 0.022689 -0.053509  0.000002)
 81:   1728.81   0.000073    0.37  0.000013  (-0.002062  0.002982 -0.000000)
 82:   2120.71   0.000852    4.31  0.000125  (-0.005615 -0.009689 -0.000000)
 83:   2141.84   0.000712    3.60  0.000104  ( 0.002316 -0.009916  0.000001)
 84:   3165.61   0.000282    1.43  0.000028  ( 0.005265 -0.000309  0.000000)
 85:   3189.55   0.003650   18.44  0.000357  (-0.012199  0.014432 -0.000001)
 86:   3230.33   0.000027    0.14  0.000003  ( 0.001603 -0.000243  0.000000)
 87:   3231.09   0.000001    0.00  0.000000  (-0.000100 -0.000258 -0.000000)
 88:   3245.18   0.000150    0.76  0.000014  (-0.001305 -0.003565  0.000000)
 89:   3245.20   0.000272    1.37  0.000026  (-0.003872  0.003335 -0.000000)

--------------------------
THERMOCHEMISTRY AT 10000.00K
--------------------------

Temperature         ... 10000.00 K
Pressure            ... 1.00 atm
Total Mass          ... 294.31 AMU

Throughout the following assumptions are being made:
  (1) The electronic state is orbitally nondegenerate
  (2) There are no thermally accessible electronically excited states
  (3) Hindered rotations indicated by low frequency modes are not
      treated as such but are treated as vibrations and this may
      cause some error
  (4) All equations used are the standard statistical mechanics
      equations for an ideal gas
  (5) All vibrations are strictly harmonic

freq.      77.12  E(vib)   ...      19.76
freq.      85.26  E(vib)   ...      19.75
freq.     126.12  E(vib)   ...      19.69
freq.     167.60  E(vib)   ...      19.63
freq.     218.38  E(vib)   ...      19.56
freq.     272.49  E(vib)   ...      19.49
freq.     295.58  E(vib)   ...      19.45
freq.     318.14  E(vib)   ...      19.42
freq.     330.39  E(vib)   ...      19.40
freq.     345.48  E(vib)   ...      19.38
freq.     359.25  E(vib)   ...      19.36
freq.     382.92  E(vib)   ...      19.33
freq.     393.48  E(vib)   ...      19.32
freq.     406.89  E(vib)   ...      19.30
freq.     427.24  E(vib)   ...      19.27
freq.     446.16  E(vib)   ...      19.24
freq.     450.75  E(vib)   ...      19.24
freq.     468.50  E(vib)   ...      19.21
freq.     470.74  E(vib)   ...      19.21
freq.     479.77  E(vib)   ...      19.19
freq.     496.76  E(vib)   ...      19.17
freq.     505.86  E(vib)   ...      19.16
freq.     525.79  E(vib)   ...      19.13
freq.     540.81  E(vib)   ...      19.11
freq.     557.31  E(vib)   ...      19.09
freq.     570.51  E(vib)   ...      19.07
freq.     599.05  E(vib)   ...      19.03
freq.     608.99  E(vib)   ...      19.01
freq.     648.42  E(vib)   ...      18.96
freq.     664.71  E(vib)   ...      18.94
freq.     675.78  E(vib)   ...      18.92
freq.     695.17  E(vib)   ...      18.90
freq.     717.65  E(vib)   ...      18.86
freq.     759.03  E(vib)   ...      18.81
freq.     800.57  E(vib)   ...      18.75
freq.     811.48  E(vib)   ...      18.74
freq.     819.00  E(vib)   ...      18.72
freq.     825.35  E(vib)   ...      18.72
freq.     842.57  E(vib)   ...      18.69
freq.     852.35  E(vib)   ...      18.68
freq.     855.63  E(vib)   ...      18.67
freq.     859.74  E(vib)   ...      18.67
freq.     882.12  E(vib)   ...      18.64
freq.     962.90  E(vib)   ...      18.53
freq.     968.15  E(vib)   ...      18.52
freq.     999.33  E(vib)   ...      18.48
freq.    1000.17  E(vib)   ...      18.48
freq.    1019.51  E(vib)   ...      18.45
freq.    1040.89  E(vib)   ...      18.42
freq.    1107.37  E(vib)   ...      18.33
freq.    1137.02  E(vib)   ...      18.29
freq.    1154.66  E(vib)   ...      18.27
freq.    1194.23  E(vib)   ...      18.21
freq.    1217.05  E(vib)   ...      18.18
freq.    1232.83  E(vib)   ...      18.16
freq.    1244.28  E(vib)   ...      18.15
freq.    1258.19  E(vib)   ...      18.13
freq.    1268.23  E(vib)   ...      18.11
freq.    1302.73  E(vib)   ...      18.07
freq.    1315.94  E(vib)   ...      18.05
freq.    1332.76  E(vib)   ...      18.03
freq.    1362.44  E(vib)   ...      17.99
freq.    1384.41  E(vib)   ...      17.96
freq.    1396.18  E(vib)   ...      17.94
freq.    1416.59  E(vib)   ...      17.92
freq.    1427.67  E(vib)   ...      17.90
freq.    1447.55  E(vib)   ...      17.87
freq.    1484.79  E(vib)   ...      17.83
freq.    1491.10  E(vib)   ...      17.82
freq.    1506.81  E(vib)   ...      17.80
freq.    1582.97  E(vib)   ...      17.70
freq.    1591.94  E(vib)   ...      17.68
freq.    1611.00  E(vib)   ...      17.66
freq.    1655.82  E(vib)   ...      17.60
freq.    1664.76  E(vib)   ...      17.59
freq.    1728.81  E(vib)   ...      17.50
freq.    2120.71  E(vib)   ...      16.99
freq.    2141.84  E(vib)   ...      16.97
freq.    3165.61  E(vib)   ...      15.69
freq.    3189.55  E(vib)   ...      15.66
freq.    3230.33  E(vib)   ...      15.61
freq.    3231.09  E(vib)   ...      15.61
freq.    3245.18  E(vib)   ...      15.59
freq.    3245.20  E(vib)   ...      15.59

------------
INNER ENERGY
------------

The inner energy is: U= E(el) + E(ZPE) + E(vib) + E(rot) + E(trans)
    E(el)   - is the total energy from the electronic structure calculation
              = E(kin-el) + E(nuc-el) + E(el-el) + E(nuc-nuc)
    E(ZPE)  - the the zero temperature vibrational energy from the frequency calculation
    E(vib)  - the the finite temperature correction to E(ZPE) due to population
              of excited vibrational states
    E(rot)  - is the rotational thermal energy
    E(trans)- is the translational thermal energy

Summary of contributions to the inner energy U:
Electronic energy                ...   -917.75022273 Eh
Zero point energy                ...      0.20438685 Eh     128.25 kcal/mol
Thermal vibrational correction   ...      2.46366748 Eh    1545.97 kcal/mol
Thermal rotational correction    ...      0.04750198 Eh      29.81 kcal/mol
Thermal translational correction ...      0.04750198 Eh      29.81 kcal/mol
-----------------------------------------------------------------------
Total thermal energy                   -914.98716445 Eh

Summary of corrections to the electronic energy:
(perhaps to be used in another calculation)
Total thermal correction                  2.55867143 Eh    1605.59 kcal/mol
Non-thermal (ZPE) correction              0.20438685 Eh     128.25 kcal/mol
-----------------------------------------------------------------------
Total correction                          2.76305828 Eh    1733.84 kcal/mol

--------
ENTHALPY
--------

The enthalpy is H = U + kB*T
                kB is Boltzmann's constant
Total free energy                 ...   -914.98716445 Eh
Thermal Enthalpy correction       ...      0.03166893 Eh      19.87 kcal/mol
-----------------------------------------------------------------------
Total Enthalpy                    ...   -914.95549553 Eh

Note: Rotational entropy computed according to Herzberg
Infrared and Raman Spectra, Chapter V,1, Van Nostrand Reinhold, 1945
Point Group:  Cs, Symmetry Number:   1
Rotational constants in cm-1:     0.012210     0.011449     0.005909

Vibrational entropy computed according to the QRRHO of S. Grimme
Chem.Eur.J. 2012 18 9955

-------
ENTROPY
-------

The entropy contributions are T*S = T*(S(el)+S(vib)+S(rot)+S(trans))
     S(el)   - electronic entropy
     S(vib)  - vibrational entropy

                             ****ORCA TERMINATED NORMALLY****
TOTAL RUN TIME: 0 days 7 hours 16 minutes 25 seconds 222 msec
