                         Program Version 5.0.4 -  RELEASE  -
|  1> !B3LYP 6-311+G**  D4
|  2>
|  3> %maxcore 5000
|  4> %pal
|  5> nprocs 7
|  6> end
|  7>
|  8> %TDDFT
|  9>   NROOTS 1000
| 10>   END
| 11>
| 12> %scf
| 13> stabperform true
| 14> STABDTol 1e-5
| 15> STABRTol 1e-5
| 16> end
| 17>
| 18> * XYZ 0 1
| 19>   C   -3.35033919707563      1.65437419580195     -0.01265869076846
| 20>   C   -4.26277663219403      0.60498341427227     -0.03856807631746
| 21>   C   -3.82154892042965     -0.71422867676207     -0.04592897308486
| 22>   C   -2.45251273772298     -1.01382756955033     -0.02758287068478
| 23>   C   -1.96186346635643     -2.36196427913232     -0.03282490824908
| 24>   C   -0.62995551325856     -2.62745733651453     -0.01258743184992
| 25>   C   0.34468311917300     -1.57464472931411      0.01456633867180
| 26>   C   1.72308656494427     -1.83612960453215      0.03732966264129
| 27>   C   2.62893101795652     -0.78556517728542      0.05200600913917
| 28>   C   2.19393537732878      0.54261886116513      0.04640969148882
| 29>   C   0.82884503806801      0.85427537913658      0.03811617158643
| 30>   C   0.33154790917972      2.20055277850404      0.04765771168255
| 31>   C   -1.00183797523034      2.46195180199058      0.03272801715106
| 32>   C   -1.97112722168548      1.40507705580027      0.00556319333003
| 33>   C   -1.50873821992223      0.05572109516752     -0.00215984579299
| 34>   C   -0.11167208659671     -0.22162455222333      0.01715108202537
| 35>   C   3.37439272276955      1.48738597984239      0.07417586369587
| 36>   C   4.56291979074032      0.57950853246148     -0.32324850677279
| 37>   C   4.13932596372885     -0.84640613635946      0.09928088606659
| 38>   H   -3.70195374548558      2.68171670430622     -0.00628663402081
| 39>   H   -5.32704948968248      0.81681563572882     -0.05272826982039
| 40>   H   -4.54013389486298     -1.52816066112217     -0.06563605253952
| 41>   H   -2.68309109438509     -3.17365908572634     -0.05260798256492
| 42>   H   -0.27629637056009     -3.65442906235706     -0.01602277543092
| 43>   H   2.06911594180364     -2.86624671973311      0.03751049792632
| 44>   H   1.04354054070200      3.01863443176854      0.07078891575090
| 45>   H   -1.35858189480242      3.48778282215375      0.04099701771447
| 46>   H   3.26072728697370      2.34168963833281     -0.59878061009192
| 47>   H   3.50995819100506      1.89802896018186      1.08371371102638
| 48>   H   4.69057613363393      0.61081246189124     -1.40937438593431
| 49>   H   5.50663453474056      0.89460248222845      0.12681077468491
| 50>   H   4.47393919343030     -1.06816809024595      1.12092327613828
| 51>   H   4.55851913407249     -1.62312054987555     -0.54603280679709
| 52> **                         ****END OF INPUT****

CARTESIAN COORDINATES (ANGSTROEM)
---------------------------------
  C     -3.350339    1.654374   -0.012659
  C     -4.262777    0.604983   -0.038568
  C     -3.821549   -0.714229   -0.045929
  C     -2.452513   -1.013828   -0.027583
  C     -1.961863   -2.361964   -0.032825
  C     -0.629956   -2.627457   -0.012587
  C      0.344683   -1.574645    0.014566
  C      1.723087   -1.836130    0.037330
  C      2.628931   -0.785565    0.052006
  C      2.193935    0.542619    0.046410
  C      0.828845    0.854275    0.038116
  C      0.331548    2.200553    0.047658
  C     -1.001838    2.461952    0.032728
  C     -1.971127    1.405077    0.005563
  C     -1.508738    0.055721   -0.002160
  C     -0.111672   -0.221625    0.017151
  C      3.374393    1.487386    0.074176
  C      4.562920    0.579509   -0.323249
  C      4.139326   -0.846406    0.099281
  H     -3.701954    2.681717   -0.006287
  H     -5.327049    0.816816   -0.052728
  H     -4.540134   -1.528161   -0.065636
  H     -2.683091   -3.173659   -0.052608
  H     -0.276296   -3.654429   -0.016023
  H      2.069116   -2.866247    0.037510
  H      1.043541    3.018634    0.070789
  H     -1.358582    3.487783    0.040997
  H      3.260727    2.341690   -0.598781
  H      3.509958    1.898029    1.083714
  H      4.690576    0.610812   -1.409374
  H      5.506635    0.894602    0.126811
  H      4.473939   -1.068168    1.120923
  H      4.558519   -1.623121   -0.546033

 Total Charge           Charge          ....    0
 Multiplicity           Mult            ....    1
 Number of Electrons    NEL             ....  128
 Basis Dimension        Dim             ....  502

ORBITAL ENERGIES
----------------

  NO   OCC          E(Eh)            E(eV)
   0   2.0000     -10.183126      -277.0970
   1   2.0000     -10.182768      -277.0872
   2   2.0000     -10.182445      -277.0784
   3   2.0000     -10.182239      -277.0728
   4   2.0000     -10.182012      -277.0666
   5   2.0000     -10.181513      -277.0530
   6   2.0000     -10.176005      -276.9032
   7   2.0000     -10.175348      -276.8853
   8   2.0000     -10.175066      -276.8776
   9   2.0000     -10.174805      -276.8705
  10   2.0000     -10.174673      -276.8669
  11   2.0000     -10.174111      -276.8516
  12   2.0000     -10.173672      -276.8397
  13   2.0000     -10.173547      -276.8363
  14   2.0000     -10.173295      -276.8294
  15   2.0000     -10.173266      -276.8287
  16   2.0000     -10.172271      -276.8016
  17   2.0000     -10.171963      -276.7932
  18   2.0000     -10.170306      -276.7481
  19   2.0000      -0.895640       -24.3716
  20   2.0000      -0.865754       -23.5584
  21   2.0000      -0.833261       -22.6742
  22   2.0000      -0.825161       -22.4538
  23   2.0000      -0.781257       -21.2591
  24   2.0000      -0.764858       -20.8128
  25   2.0000      -0.747470       -20.3397
  26   2.0000      -0.730760       -19.8850
  27   2.0000      -0.708437       -19.2776
  28   2.0000      -0.688651       -18.7392
  29   2.0000      -0.630454       -17.1555
  30   2.0000      -0.626250       -17.0411
  31   2.0000      -0.616294       -16.7702
  32   2.0000      -0.604577       -16.4514
  33   2.0000      -0.579129       -15.7589
  34   2.0000      -0.533827       -14.5262
  35   2.0000      -0.519291       -14.1306
  36   2.0000      -0.516490       -14.0544
  37   2.0000      -0.509614       -13.8673
  38   2.0000      -0.486591       -13.2408
  39   2.0000      -0.475707       -12.9446
  40   2.0000      -0.466930       -12.7058
  41   2.0000      -0.445290       -12.1170
  42   2.0000      -0.432635       -11.7726
  43   2.0000      -0.431249       -11.7349
  44   2.0000      -0.414976       -11.2921
  45   2.0000      -0.412070       -11.2130
  46   2.0000      -0.407479       -11.0881
  47   2.0000      -0.401012       -10.9121
  48   2.0000      -0.397187       -10.8080
  49   2.0000      -0.388477       -10.5710
  50   2.0000      -0.370400       -10.0791
  51   2.0000      -0.368019       -10.0143
  52   2.0000      -0.360735        -9.8161
  53   2.0000      -0.348458        -9.4820
  54   2.0000      -0.347138        -9.4461
  55   2.0000      -0.344679        -9.3792
  56   2.0000      -0.336923        -9.1681
  57   2.0000      -0.329542        -8.9673
  58   2.0000      -0.317674        -8.6443
  59   2.0000      -0.289525        -7.8784
  60   2.0000      -0.272411        -7.4127
  61   2.0000      -0.257406        -7.0044
  62   2.0000      -0.227291        -6.1849
  63   2.0000      -0.198915        -5.4127
  64   0.0000      -0.061762        -1.6806
  65   0.0000      -0.029591        -0.8052
  66   0.0000      -0.013895        -0.3781
  67   0.0000      -0.000000        -0.0000
  68   0.0000       0.000000         0.0000

MULLIKEN ATOMIC CHARGES
-----------------------
   0 C :   -0.402497
   1 C :   -0.158292
   2 C :   -0.366803
   3 C :    1.484588
   4 C :   -0.214543
   5 C :   -0.218873
   6 C :    1.385268
   7 C :   -0.802025
   8 C :   -0.260955
   9 C :   -1.535305
  10 C :    2.539021
  11 C :   -1.105258
  12 C :   -0.682379
  13 C :    1.543618
  14 C :   -2.151708
  15 C :   -0.747332
  16 C :    0.134594
  17 C :   -0.452612
  18 C :    0.056123
  19 H :    0.121325
  20 H :    0.124910
  21 H :    0.120939
  22 H :    0.120690
  23 H :    0.117305
  24 H :    0.115889
  25 H :    0.125849
  26 H :    0.119077
  27 H :    0.158194
  28 H :    0.179290
  29 H :    0.166359
  30 H :    0.151074
  31 H :    0.174317
  32 H :    0.160154
Sum of atomic charges:   -0.0000000

LOEWDIN ATOMIC CHARGES
----------------------
   0 C :   -0.049550
   1 C :   -0.057855
   2 C :   -0.048650
   3 C :   -0.069075
   4 C :   -0.041016
   5 C :   -0.037079
   6 C :   -0.060958
   7 C :   -0.040067
   8 C :   -0.089340
   9 C :   -0.081151
  10 C :   -0.060381
  11 C :   -0.037118
  12 C :   -0.033457
  13 C :   -0.068998
  14 C :   -0.032916
  15 C :   -0.026657
  16 C :   -0.079539
  17 C :   -0.084204
  18 C :   -0.076529
  19 H :    0.078728
  20 H :    0.073574
  21 H :    0.078840
  22 H :    0.079878
  23 H :    0.079966
  24 H :    0.084543
  25 H :    0.081743
  26 H :    0.080070
  27 H :    0.071602
  28 H :    0.082953
  29 H :    0.071180
  30 H :    0.060125
  31 H :    0.080656
  32 H :    0.070684

  Mayer bond orders larger than 0.100000
B(  0-C ,  1-C ) :   1.0603 B(  0-C ,  2-C ) :   0.5073 B(  0-C ,  4-C ) :  -0.3020
B(  0-C ,  9-C ) :  -0.2421 B(  0-C , 10-C ) :   0.2112 B(  0-C , 11-C ) :   0.2092
B(  0-C , 12-C ) :  -0.8417 B(  0-C , 13-C ) :  -0.4437 B(  0-C , 14-C ) :   1.7041
B(  0-C , 15-C ) :   0.2174 B(  0-C , 19-H ) :   1.0342 B(  0-C , 26-H ) :  -0.1248
B(  1-C ,  2-C ) :   1.0523 B(  1-C ,  3-C ) :  -0.3059 B(  1-C ,  5-C ) :   0.1096
B(  1-C ,  6-C ) :   0.1303 B(  1-C , 11-C ) :   0.1245 B(  1-C , 14-C ) :   0.4325
B(  1-C , 15-C ) :  -0.1578 B(  1-C , 20-H ) :   0.9599 B(  2-C ,  4-C ) :  -0.8582
B(  2-C ,  6-C ) :  -0.1270 B(  2-C , 12-C ) :  -0.2836 B(  2-C , 14-C ) :   1.4266
B(  2-C , 15-C ) :   0.3657 B(  2-C , 21-H ) :   1.0787 B(  2-C , 22-H ) :  -0.1292
B(  3-C ,  4-C ) :   0.4171 B(  3-C ,  6-C ) :   0.5101 B(  3-C ,  7-C ) :  -0.1601
B(  3-C ,  9-C ) :  -0.2245 B(  3-C , 11-C ) :  -0.2012 B(  3-C , 12-C ) :   0.1206
B(  3-C , 13-C ) :  -0.2477 B(  3-C , 14-C ) :   0.9164 B(  3-C , 15-C ) :   0.1045
B(  3-C , 16-C ) :   0.1176 B(  3-C , 20-H ) :  -0.1266 B(  3-C , 21-H ) :  -0.3463
B(  3-C , 22-H ) :  -0.3917 B(  4-C ,  5-C ) :   0.7292 B(  4-C ,  9-C ) :   0.2691
B(  4-C , 12-C ) :   0.1391 B(  4-C , 13-C ) :   0.2075 B(  4-C , 14-C ) :   0.8903
B(  4-C , 15-C ) :  -0.1413 B(  4-C , 22-H ) :   1.1928 B(  5-C ,  6-C ) :  -0.5722
B(  5-C ,  7-C ) :  -0.1101 B(  5-C ,  8-C ) :  -0.3391 B(  5-C ,  9-C ) :  -0.2929
B(  5-C , 10-C ) :  -0.1948 B(  5-C , 11-C ) :   0.1043 B(  5-C , 15-C ) :   1.9251
B(  5-C , 23-H ) :   0.9838 B(  5-C , 24-H ) :  -0.1264 B(  6-C ,  7-C ) :  -0.8831
B(  6-C ,  8-C ) :   2.0822 B(  6-C , 10-C ) :  -0.3282 B(  6-C , 12-C ) :   0.2121
B(  6-C , 13-C ) :   0.3068 B(  6-C , 14-C ) :  -1.0526 B(  6-C , 15-C ) :   0.4724
B(  6-C , 16-C ) :  -0.1349 B(  6-C , 23-H ) :  -0.3271 B(  6-C , 24-H ) :  -0.4443
B(  7-C ,  9-C ) :   0.5428 B(  7-C , 13-C ) :  -0.1219 B(  7-C , 15-C ) :   1.4229
B(  7-C , 18-C ) :  -0.1229 B(  7-C , 24-H ) :   0.8492 B(  8-C ,  9-C ) :   5.4090
B(  8-C , 10-C ) :  -2.5151 B(  8-C , 11-C ) :   1.0554 B(  8-C , 12-C ) :   0.1639
B(  8-C , 15-C ) :  -2.4127 B(  8-C , 16-C ) :   0.8464 B(  8-C , 17-C ) :  -0.2802
B(  8-C , 18-C ) :   0.2357 B(  8-C , 28-H ) :   0.1382 B(  8-C , 29-H ) :  -0.1366
B(  8-C , 31-H ) :   0.2508 B(  8-C , 32-H ) :  -0.1262 B(  9-C , 10-C ) :   1.7828
B(  9-C , 11-C ) :   0.9372 B(  9-C , 12-C ) :  -0.5637 B(  9-C , 13-C ) :   0.6806
B(  9-C , 16-C ) :  -0.6774 B(  9-C , 18-C ) :   0.4684 B(  9-C , 24-H ) :   0.1766
B(  9-C , 25-H ) :   0.3359 B(  9-C , 31-H ) :  -0.1776 B(  9-C , 32-H ) :   0.1475
B( 10-C , 11-C ) :  -2.6252 B( 10-C , 14-C ) :   0.2377 B( 10-C , 15-C ) :   2.8115
B( 10-C , 16-C ) :  -0.1031 B( 10-C , 17-C ) :   0.1319 B( 10-C , 18-C ) :  -0.3722
B( 10-C , 24-H ) :  -0.1856 B( 10-C , 25-H ) :  -0.7654 B( 10-C , 27-H ) :  -0.1610
B( 10-C , 28-H ) :  -0.1782 B( 10-C , 29-H ) :   0.2276 B( 11-C , 12-C ) :   0.6496
B( 11-C , 14-C ) :  -0.1594 B( 11-C , 15-C ) :  -0.6371 B( 11-C , 16-C ) :  -0.4490
B( 11-C , 25-H ) :   1.2780 B( 11-C , 26-H ) :  -0.2583 B( 11-C , 27-H ) :   0.1525
B( 12-C , 13-C ) :   0.6267 B( 12-C , 14-C ) :   1.1812 B( 12-C , 15-C ) :   0.2189
B( 12-C , 25-H ) :   0.2032 B( 12-C , 26-H ) :   1.2361 B( 13-C , 14-C ) :   0.7554
B( 13-C , 15-C ) :  -0.9209 B( 13-C , 16-C ) :   0.1463 B( 13-C , 18-C ) :   0.1003
B( 13-C , 19-H ) :  -0.4789 B( 13-C , 20-H ) :  -0.1273 B( 13-C , 21-H ) :  -0.1296
B( 13-C , 26-H ) :  -0.3371 B( 14-C , 15-C ) :   2.6080 B( 14-C , 19-H ) :   0.6225
B( 14-C , 20-H ) :   0.2152 B( 14-C , 21-H ) :   0.4006 B( 14-C , 22-H ) :   0.3286
B( 14-C , 26-H ) :   0.3441 B( 15-C , 16-C ) :   0.3785 B( 15-C , 23-H ) :   0.3440
B( 15-C , 24-H ) :   0.7231 B( 16-C , 17-C ) :   0.9134 B( 16-C , 18-C ) :   0.1965
B( 16-C , 27-H ) :   0.9051 B( 16-C , 28-H ) :   0.8416 B( 16-C , 29-H ) :  -0.1161
B( 17-C , 18-C ) :   0.9489 B( 17-C , 29-H ) :   1.0536 B( 17-C , 30-H ) :   1.0168
B( 18-C , 31-H ) :   0.7732 B( 18-C , 32-H ) :   0.9313

-----------------------------------------------------------------------------
         ABSORPTION SPECTRUM VIA TRANSITION ELECTRIC DIPOLE MOMENTS
-----------------------------------------------------------------------------
State   Energy    Wavelength  fosc         T2        TX        TY        TZ
        (cm-1)      (nm)                 (au**2)    (au)      (au)      (au)
-----------------------------------------------------------------------------
   1   29542.0    338.5   0.062831696   0.70019  -0.83629   0.01964  -0.02060
   2   30374.4    329.2   0.288891902   3.13114   1.75415  -0.23127   0.02504
   3   34304.4    291.5   0.005084392   0.04879  -0.18346   0.12303  -0.00111
   4   37159.2    269.1   0.082823075   0.73377  -0.14786  -0.84367  -0.01090
   5   37800.1    264.5   0.209641830   1.82583   0.23329   1.33092   0.00828
   6   39407.8    253.8   0.022925763   0.19152  -0.08359  -0.42757  -0.04141
   7   39656.6    252.2   0.001991037   0.01653   0.07098  -0.03938   0.09970
   8   41001.5    243.9   0.021035207   0.16890  -0.26399  -0.31447  -0.01777
   9   41189.0    242.8   0.004564476   0.03648  -0.13176   0.00854  -0.13801
  10   41574.8    240.5   0.001957514   0.01550  -0.12332   0.01113  -0.01298
  11   43404.6    230.4   0.527176935   3.99850  -1.98313   0.25080  -0.05276
  12   43656.8    229.1   0.000000000   0.00000  -0.00000   0.00000  -0.00000
  13   43656.8    229.1   0.000000000   0.00000  -0.00000   0.00000  -0.00000
  14   44212.3    226.2   0.015841903   0.11796  -0.33721   0.06431  -0.01061
  15   44346.1    225.5   0.643201918   4.77493   2.16744  -0.27498   0.03881
  16   44633.2    224.0   0.000129948   0.00096  -0.01663  -0.01392  -0.02209
  17   45216.3    221.2   0.023937782   0.17429  -0.40066   0.11631  -0.01522
  18   45941.7    217.7   0.007635403   0.05471   0.16414  -0.14440  -0.08318
  19   45989.3    217.4   0.001188484   0.00851  -0.01421  -0.07620   0.04999
  20   46542.0    214.9   0.000251746   0.00178  -0.04147   0.00474   0.00621
  21   46709.6    214.1   0.008224629   0.05797  -0.17980   0.13324   0.08880
  22   47319.6    211.3   0.007922794   0.05512  -0.19985   0.00075   0.12321
  23   47619.8    210.0   0.014193117   0.09812   0.30488  -0.06140   0.03742
  24   47857.4    209.0   0.001982086   0.01363   0.02042   0.00188  -0.11495
  25   48091.5    207.9   0.003124854   0.02139   0.02068   0.00659  -0.14464
  26   48442.3    206.4   0.000018974   0.00013  -0.00193   0.00106  -0.01114
  27   48611.7    205.7   0.003258094   0.02206  -0.03478   0.02233   0.14268
  28   48761.0    205.1   0.006343581   0.04283   0.07893  -0.18534   0.04741
  29   49624.4    201.5   0.024159851   0.16028  -0.40011   0.01367  -0.00206
  30   49884.6    200.5   0.000000000   0.00000  -0.00000   0.00000   0.00000
  31   49884.6    200.5   0.000000000   0.00000   0.00000  -0.00000   0.00000
  32   50258.3    199.0   0.003252755   0.02131   0.11742   0.08426  -0.02049
  33   50395.4    198.4   0.007096835   0.04636  -0.15749  -0.02046  -0.14539
  34   50794.6    196.9   0.000076986   0.00050   0.01507  -0.00261   0.01628
  35   50935.1    196.3   0.004050221   0.02618   0.15928  -0.02467   0.01412
  36   51258.3    195.1   0.013913799   0.08936   0.16698  -0.24711   0.02047
  37   51337.5    194.8   0.057783003   0.37055  -0.46792   0.38039   0.08309
  38   52093.9    192.0   0.664394715   4.19870   2.03484  -0.21939   0.09991
  39   52460.8    190.6   0.015520297   0.09740   0.03035  -0.05458   0.30577
  40   52565.5    190.2   0.329328521   2.06255   1.42368  -0.18871   0.00849
  41   52685.7    189.8   0.009487428   0.05928  -0.24290   0.01307  -0.01051
  42   52915.7    189.0   0.067817592   0.42192   0.64853  -0.00852  -0.03542
  43   53083.5    188.4   0.031624125   0.19613  -0.42466   0.05678   0.11209
  44   53762.6    186.0   0.008575031   0.05251   0.22206  -0.03857  -0.04136
  45   54058.3    185.0   0.005465193   0.03328  -0.04096   0.15627   0.08476
  46   54210.2    184.5   0.021562540   0.13095   0.19313  -0.30554  -0.01712
  47   54351.5    184.0   0.073010988   0.44223   0.39089  -0.53712   0.03078
  48   54657.2    183.0   0.023188140   0.13967  -0.36742  -0.06541  -0.01984
  49   54813.2    182.4   0.072402461   0.43485   0.55512  -0.35569  -0.01334
  50   54869.0    182.3   0.013179827   0.07908  -0.23184   0.15042   0.05201
  51   54929.6    182.1   0.000491440   0.00295   0.01879   0.03979   0.03176
  52   55141.0    181.4   0.243630416   1.45456  -0.71196   0.97301   0.03059
  53   55590.7    179.9   0.037916115   0.22454   0.05004  -0.46999   0.03380
  54   55870.3    179.0   0.049054096   0.28905   0.19740   0.49902   0.03250
  55   55887.7    178.9   0.032463385   0.19123  -0.17973   0.39532  -0.05142
  56   56247.2    177.8   0.134280176   0.78593   0.70296  -0.53915   0.03307
  57   56289.4    177.7   0.047624918   0.27854   0.23137  -0.47204  -0.04674
  58   56494.2    177.0   0.000000000   0.00000   0.00000   0.00000   0.00000
  59   56494.2    177.0   0.000000000   0.00000  -0.00000  -0.00000  -0.00000
  60   56538.4    176.9   0.048106200   0.28011   0.21893   0.47875   0.05456
  61   56988.5    175.5   0.398480884   2.30195  -0.72322  -1.33362  -0.01855
  62   57116.4    175.1   0.004138037   0.02385  -0.11735  -0.09512   0.03213
  63   57252.0    174.7   0.192429972   1.10652   0.31626   1.00279  -0.03024
  64   57330.8    174.4   0.061525144   0.35330  -0.47347  -0.32236  -0.15877
  65   57399.0    174.2   0.063871366   0.36633  -0.41419  -0.44078  -0.02220
  66   57685.5    173.4   0.049388086   0.28186   0.33649   0.41065   0.00173
  67   57745.0    173.2   0.310577234   1.77064   0.86779   1.00856  -0.01948
  68   57763.4    173.1   0.087372252   0.49796  -0.64897  -0.25798   0.10124
  69   57819.4    173.0   0.061697228   0.35129   0.57661  -0.13682  -0.00988
  70   57953.0    172.6   0.072791711   0.41351   0.55753   0.31968  -0.02165
  71   58119.4    172.1   0.002861790   0.01621  -0.02782  -0.12424   0.00018
  72   58385.1    171.3   0.007922775   0.04467  -0.19801   0.07193   0.01705
  73   58446.5    171.1   0.009080802   0.05115  -0.11024   0.19733   0.00748
  74   58523.3    170.9   0.042247524   0.23766   0.27058  -0.40519   0.01628
  75   59133.2    169.1   0.001043368   0.00581   0.03339   0.01113   0.06760
  76   59238.9    168.8   0.003606493   0.02004   0.13649   0.01698   0.03354
  77   59347.1    168.5   0.008269506   0.04587  -0.02448   0.15514  -0.14562
  78   59383.9    168.4   0.020578601   0.11408  -0.12117   0.31490  -0.01544
  79   59702.2    167.5   0.005932712   0.03271   0.02645  -0.15845  -0.08312
  80   59787.3    167.3   0.000000000   0.00000  -0.00000  -0.00000  -0.00000
  81   59787.3    167.3   0.000000000   0.00000   0.00000  -0.00000   0.00000
  82   59859.9    167.1   0.005008060   0.02754  -0.07632   0.14557  -0.02298
  83   59900.0    166.9   0.000319391   0.00176  -0.01635  -0.00447  -0.03832
  84   60016.1    166.6   0.008167610   0.04480  -0.18432   0.10186   0.02127
  85   60032.4    166.6   0.006047392   0.03316   0.10659  -0.14066  -0.04492
  86   60194.0    166.1   0.008898706   0.04867  -0.13505  -0.16614  -0.05319
  87   60382.9    165.6   0.024385636   0.13295   0.34912   0.10241   0.02399
  88   60415.9    165.5   0.004720125   0.02572   0.06378  -0.14196   0.03874
  89   60563.1    165.1   0.004093085   0.02225  -0.01751   0.13947   0.04992
  90   60821.0    164.4   0.000269536   0.00146   0.01537  -0.03466   0.00463
  91   60948.7    164.1   0.011785940   0.06366   0.18917  -0.13644   0.09623
  92   60987.2    164.0   0.008280525   0.04470   0.11159  -0.13795  -0.11497
  93   61150.4    163.5   0.031648124   0.17038  -0.30677   0.27335   0.03941
  94   61301.4    163.1   0.003446191   0.01851  -0.01334   0.02452  -0.13315
  95   61539.3    162.5   0.003362292   0.01799   0.10980  -0.01561   0.07542
  96   61660.8    162.2   0.154562399   0.82522   0.82514  -0.37965  -0.01554
  97   61881.1    161.6   0.001786110   0.00950   0.08668  -0.03830  -0.02285
  98   62090.3    161.1   0.001815196   0.00962   0.07926   0.05496  -0.01797
  99   62334.3    160.4   0.008571752   0.04527  -0.20481   0.04741  -0.03282
 100   62394.5    160.3   0.001991991   0.01051  -0.06327  -0.00781  -0.08029
 101   62608.1    159.7   0.038510037   0.20250   0.41783  -0.16691  -0.00768
 102   62778.5    159.3   0.011833141   0.06205   0.24367  -0.05011   0.01290
 103   62856.7    159.1   0.017906074   0.09378  -0.25306   0.15888   0.06708
 104   62972.9    158.8   0.008707929   0.04552   0.13262   0.14390   0.08502
 105   62995.0    158.7   0.003471193   0.01814   0.00418  -0.13444   0.00694
 106   63161.4    158.3   0.003865573   0.02015   0.11697  -0.07538   0.02801
 107   63223.1    158.2   0.025417681   0.13235  -0.35980   0.04523  -0.02917
 108   63543.3    157.4   0.000000000   0.00000  -0.00000  -0.00000  -0.00000
 109   63543.3    157.4   0.000000000   0.00000  -0.00000   0.00000  -0.00000
 110   63559.7    157.3   0.005530193   0.02864   0.01944   0.16805  -0.00494
 111   63934.7    156.4   0.001369918   0.00705   0.03089   0.03954   0.06735
 112   64122.8    156.0   0.003897706   0.02001   0.00483   0.02196  -0.13966
 113   64197.3    155.8   0.002138058   0.01096   0.06771   0.00739   0.07953
 114   64240.4    155.7   0.001836243   0.00941  -0.05154   0.05619   0.05997
 115   64290.6    155.5   0.006442323   0.03299   0.11335  -0.00170  -0.14191
 116   64581.5    154.8   0.003051414   0.01555   0.02030   0.04703   0.11371
 117   64655.5    154.7   0.001193506   0.00608  -0.03723  -0.05874   0.03522
 118   64702.8    154.6   0.019767683   0.10058   0.25732   0.18518   0.00865
 119   64754.5    154.4   0.001010284   0.00514   0.05377   0.02881   0.03762
 120   64954.3    154.0   0.001453432   0.00737  -0.02588  -0.03514  -0.07391
 121   64980.0    153.9   0.000605635   0.00307  -0.01895  -0.02662  -0.04473
 122   65192.4    153.4   0.005567930   0.02812   0.13760  -0.00033  -0.09582
 123   65265.3    153.2   0.001472962   0.00743  -0.08203  -0.00543  -0.02591
 124   65449.1    152.8   0.009310821   0.04683   0.06108  -0.20138  -0.05050
 125   65691.2    152.2   0.003302697   0.01655  -0.06788  -0.10913   0.00592
 126   65723.4    152.2   0.065563021   0.32841   0.29096   0.48896   0.06830
 127   65831.5    151.9   0.002940511   0.01470  -0.07391  -0.07442   0.06086
 128   66024.1    151.5   0.018752481   0.09350  -0.07045   0.29738   0.01041
 129   66201.4    151.1   0.000611845   0.00304   0.04413   0.02540   0.02121
 130   66240.2    151.0   0.002803070   0.01393  -0.05540   0.02748   0.10054
 131   66269.2    150.9   0.003126936   0.01553  -0.02002   0.12143   0.01967
 132   66360.4    150.7   0.012609728   0.06256   0.10212  -0.20736   0.09556
 133   66410.4    150.6   0.008271302   0.04100   0.02051  -0.15827   0.12463
 134   66540.4    150.3   0.006749338   0.03339  -0.17459  -0.05396   0.00094
 135   66614.7    150.1   0.001041251   0.00515  -0.00181   0.06140  -0.03704
 136   66790.7    149.7   0.019658528   0.09690  -0.00506   0.30359  -0.06857
 137   66839.8    149.6   0.005690712   0.02803   0.05866  -0.15484  -0.02479
 138   66938.6    149.4   0.001844532   0.00907  -0.03593   0.08784   0.00801
 139   66956.3    149.4   0.000552399   0.00272  -0.03839  -0.02675  -0.02295
 140   66987.5    149.3   0.001336978   0.00657   0.05999   0.04923   0.02340
 141   67268.1    148.7   0.006293090   0.03080   0.16582   0.05497   0.01672
 142   67297.5    148.6   0.016713964   0.08176  -0.28276   0.04249  -0.00226
 143   67469.4    148.2   0.023306663   0.11372  -0.12602  -0.31276  -0.00502
 144   67540.7    148.1   0.068888834   0.33578  -0.00793   0.57941   0.00169
 145   67708.0    147.7   0.033145848   0.16116  -0.28967   0.27790  -0.00543
 146   68041.2    147.0   0.003230201   0.01563   0.08858  -0.06056   0.06415
 147   68146.5    146.7   0.000968182   0.00468   0.03125  -0.04384  -0.04218
 148   68334.5    146.3   0.000042380   0.00020  -0.01006   0.00141  -0.01005
 149   68362.7    146.3   0.001357573   0.00654  -0.02749   0.06790   0.03423
 150   68382.8    146.2   0.000551109   0.00265   0.04199  -0.02982  -0.00082
 151   68534.8    145.9   0.006296289   0.03024   0.11699   0.00679  -0.12850
 152   68755.3    145.4   0.002515505   0.01204  -0.06490   0.08281  -0.03123
 153   68822.1    145.3   0.004376429   0.02093  -0.14134   0.03050   0.00521
 154   68959.3    145.0   0.016908792   0.08072  -0.27497  -0.06987   0.01527
 155   69091.6    144.7   0.000278277   0.00133   0.01760   0.01618   0.02746
 156   69160.0    144.6   0.017240554   0.08207   0.28093   0.05347  -0.01696
 157   69200.2    144.5   0.004701127   0.02237   0.14803   0.01214  -0.01748
 158   69307.7    144.3   0.009614293   0.04567   0.11907  -0.17590  -0.02343
 159   69335.7    144.2   0.004564689   0.02167   0.11228  -0.09023  -0.03040
 160   69468.5    144.0   0.007936024   0.03761   0.02274  -0.19181  -0.01733
 161   69521.5    143.8   0.011411065   0.05404  -0.21701  -0.08200  -0.01480
 162   69586.5    143.7   0.008917706   0.04219   0.20211   0.03598   0.00686
 163   69646.9    143.6   0.006164759   0.02914   0.10213  -0.13437  -0.02555
 164   69721.3    143.4   0.000000000   0.00000  -0.00000  -0.00000   0.00000
 165   69721.3    143.4   0.000000000   0.00000  -0.00000  -0.00000  -0.00000
 166   69785.2    143.3   0.018348491   0.08656  -0.28589  -0.04047   0.05647
 167   70032.7    142.8   0.015652891   0.07358   0.21798   0.15739  -0.03602
 168   70082.9    142.7   0.009662422   0.04539  -0.15321  -0.14500   0.02981
 169   70190.5    142.5   0.001359017   0.00637  -0.07554   0.01848  -0.01809
 170   70236.4    142.4   0.004054418   0.01900  -0.07701  -0.10909   0.03424
 171   70247.4    142.4   0.044680210   0.20939   0.06820   0.45137   0.03170
 172   70303.1    142.2   0.004752059   0.02225  -0.03004   0.14018  -0.04123
 173   70452.7    141.9   0.018755996   0.08764  -0.04276   0.28453  -0.06970
 174   70518.5    141.8   0.001810606   0.00845   0.03828   0.00167  -0.08357
 175   70677.9    141.5   0.002529204   0.01178   0.00060   0.06892   0.08384
 176   70779.1    141.3   0.004690421   0.02182  -0.10747  -0.09852   0.02366
 177   70918.0    141.0   0.005331084   0.02475   0.08228  -0.13378   0.00901
 178   70975.5    140.9   0.022297069   0.10342   0.13651  -0.29118   0.00029
 179   70981.2    140.9   0.000303980   0.00141   0.02517   0.02638  -0.00899
 180   71062.8    140.7   0.000266127   0.00123  -0.01318  -0.02496  -0.02088
 181   71160.4    140.5   0.004486035   0.02075   0.08418   0.10047   0.05978
 182   71235.2    140.4   0.003803691   0.01758  -0.10623   0.06830  -0.04037
 183   71263.2    140.3   0.004000233   0.01848  -0.11681   0.05554  -0.04186
 184   71377.2    140.1   0.019323050   0.08912   0.00358  -0.29488  -0.04641
 185   71386.7    140.1   0.002862932   0.01320   0.04482  -0.09947   0.03606
 186   71504.8    139.9   0.021547821   0.09921  -0.06124   0.30895  -0.00264
 187   71830.7    139.2   0.000591395   0.00271  -0.04097  -0.02283   0.02260
 188   71902.7    139.1   0.007372246   0.03375   0.17766   0.02477  -0.03974
 189   71999.2    138.9   0.005281779   0.02415  -0.05468  -0.00894   0.14519
 190   72070.7    138.8   0.010607065   0.04845   0.15726   0.14907   0.03869
 191   72100.4    138.7   0.007882782   0.03599  -0.07022  -0.15561   0.08276
 192   72154.7    138.6   0.003252385   0.01484  -0.02515  -0.01208   0.11858
 193   72209.5    138.5   0.005499737   0.02507  -0.02640   0.01555  -0.15535
 194   72257.0    138.4   0.004834684   0.02203   0.03741  -0.14192   0.02209
 195   72326.2    138.3   0.000000000   0.00000  -0.00000   0.00000   0.00000
 196   72326.2    138.3   0.000000000   0.00000  -0.00000   0.00000   0.00000

Dispersion correction           -0.080062847
FINAL SINGLE POINT ENERGY      -732.155252349207

DIPOLE MOMENT
-------------
                                X             Y             Z
Electronic contribution:    -10.13369      -1.64428       0.23244
Nuclear contribution   :     10.53357       1.71059      -0.21576
                        -----------------------------------------
Total Dipole Moment    :      0.39988       0.06631       0.01668
                        -----------------------------------------
Magnitude (a.u.)       :      0.40568
Magnitude (Debye)      :      1.03117

Rotational constants in cm-1:     0.029333     0.009803     0.007391
Rotational constants in MHz :   879.381870   293.878780   221.579989

                             ****ORCA TERMINATED NORMALLY****
TOTAL RUN TIME: 0 days 3 hours 50 minutes 29 seconds 85 msec
