                         Program Version 5.0.4 -  RELEASE  -
|  1> !b3lyp 6-311+g** d4  UKS moread
|  2>
|  3> % moinp "Stone-Wales_defect_loss_four_orca6.0.0.gbw"
|  4>
|  5>
|  6> %maxcore 5000
|  7> %pal
|  8> nprocs 8
|  9> end
| 10>
| 11>
| 12> %scf
| 13>   stabperform true
| 14>   STABDTol 0.00001
| 15>   STABRTol 0.00001
| 16>   end
| 17>
| 18> %tddft
| 19>   nroots 1000
| 20>   end
| 21>
| 22>
| 23> * xyz 0 1
| 24>   C   2.65263223987661     -3.24222837205533      0.00423810167507
| 25>   C   1.58321155825378     -3.89013745107644      0.00356767542366
| 26>   C   0.41707580300310     -3.08639665334534      0.00435352508535
| 27>   C   -0.92580698717380     -3.49073005508833      0.00391757303769
| 28>   C   -2.09375524502203     -2.74997217808090      0.00463429738471
| 29>   C   -2.21722251115601     -1.34494138523039      0.00606399495331
| 30>   C   -3.42830510189346     -0.58760122467869      0.00681950892643
| 31>   C   -3.63101922317580      0.62944609417213      0.00807225771813
| 32>   C   -2.64813956860818      1.66207235107236      0.00914117988147
| 33>   C   -2.60823523590207      3.07701832745724      0.01058600324656
| 34>   C   -1.39488245241918      3.76508417776725      0.01127564458998
| 35>   C   -0.14147031335312      3.09206671215471      0.01059286086512
| 36>   C   1.19138019812525      3.61707808895886      0.01112744066277
| 37>   C   2.27397663245459      2.77021962670310      0.01028287245724
| 38>   C   2.18459804221119      1.32529977570023      0.00882520832142
| 39>   C   3.36911017102094      0.53973952352043      0.00806495439249
| 40>   C   3.47783393089536     -0.83409991407854      0.00668899755767
| 41>   C   2.48829012305239     -1.83519053510052      0.00565373366937
| 42>   C   0.30597435636692     -0.54009577297645      0.00691550012810
| 43>   C   -1.40639377490421      0.99059742065841      0.00846288991340
| 44>   C   -1.14960193559369     -0.39703446569369      0.00704598081183
| 45>   C   1.00555215554687     -1.71093891441525      0.00575192334366
| 46>   H   -1.05614773528199     -4.56844898375500      0.00282447081112
| 47>   H   -3.02367644255227     -3.30567952014598      0.00404749921006
| 48>   H   -3.53522356670493      3.63773067563067      0.01116526029279
| 49>   H   -1.41365589412053      4.84971218254795      0.01238132727961
| 50>   H   1.35380410031795      4.68977263585563      0.01220893737835
| 51>   H   3.26997331672657      3.20022004918214      0.01072691561798
| 52>   H   4.30310853517328      1.09238952034645      0.00863951526354
| 53>   H   4.49070585619504     -1.22497074558989      0.00632035391925
| 54>   C   0.88282088638576      0.80799104872083      0.00828359837618
| 55>   C   -0.19653191774435      1.69960796086236      0.00917999780569
| 56> **                         ****END OF INPUT****

CARTESIAN COORDINATES (ANGSTROEM)
---------------------------------
  C      2.652632   -3.242228    0.004238
  C      1.583212   -3.890137    0.003568
  C      0.417076   -3.086397    0.004354
  C     -0.925807   -3.490730    0.003918
  C     -2.093755   -2.749972    0.004634
  C     -2.217223   -1.344941    0.006064
  C     -3.428305   -0.587601    0.006820
  C     -3.631019    0.629446    0.008072
  C     -2.648140    1.662072    0.009141
  C     -2.608235    3.077018    0.010586
  C     -1.394882    3.765084    0.011276
  C     -0.141470    3.092067    0.010593
  C      1.191380    3.617078    0.011127
  C      2.273977    2.770220    0.010283
  C      2.184598    1.325300    0.008825
  C      3.369110    0.539740    0.008065
  C      3.477834   -0.834100    0.006689
  C      2.488290   -1.835191    0.005654
  C      0.305974   -0.540096    0.006916
  C     -1.406394    0.990597    0.008463
  C     -1.149602   -0.397034    0.007046
  C      1.005552   -1.710939    0.005752
  H     -1.056148   -4.568449    0.002824
  H     -3.023676   -3.305680    0.004047
  H     -3.535224    3.637731    0.011165
  H     -1.413656    4.849712    0.012381
  H      1.353804    4.689773    0.012209
  H      3.269973    3.200220    0.010727
  H      4.303109    1.092390    0.008640
  H      4.490706   -1.224971    0.006320
  C      0.882821    0.807991    0.008284
  C     -0.196532    1.699608    0.009180

 Total Charge           Charge          ....    0
 Multiplicity           Mult            ....    1
 Number of Electrons    NEL             ....  152
 Basis Dimension        Dim             ....  576

ORBITAL ENERGIES
----------------
                 SPIN UP ORBITALS
  NO   OCC          E(Eh)            E(eV)
   0   1.0000     -10.234877      -278.5052
   1   1.0000     -10.226427      -278.2752
   2   1.0000     -10.225688      -278.2551
   3   1.0000     -10.223901      -278.2065
   4   1.0000     -10.218625      -278.0629
   5   1.0000     -10.217324      -278.0275
   6   1.0000     -10.213761      -277.9306
   7   1.0000     -10.203889      -277.6619
   8   1.0000     -10.203449      -277.6500
   9   1.0000     -10.202021      -277.6111
  10   1.0000     -10.201686      -277.6020
  11   1.0000     -10.200507      -277.5699
  12   1.0000     -10.198696      -277.5206
  13   1.0000     -10.198086      -277.5040
  14   1.0000     -10.197543      -277.4893
  15   1.0000     -10.196543      -277.4620
  16   1.0000     -10.195868      -277.4437
  17   1.0000     -10.194954      -277.4188
  18   1.0000     -10.192241      -277.3450
  19   1.0000     -10.191018      -277.3117
  20   1.0000     -10.190543      -277.2988
  21   1.0000     -10.190387      -277.2945
  22   1.0000     -10.185312      -277.1564
  23   1.0000     -10.184918      -277.1457
  24   1.0000      -0.935354       -25.4523
  25   1.0000      -0.905849       -24.6494
  26   1.0000      -0.881279       -23.9808
  27   1.0000      -0.856038       -23.2940
  28   1.0000      -0.835669       -22.7397
  29   1.0000      -0.829320       -22.5669
  30   1.0000      -0.798034       -21.7156
  31   1.0000      -0.780070       -21.2268
  32   1.0000      -0.769267       -20.9328
  33   1.0000      -0.742070       -20.1927
  34   1.0000      -0.734749       -19.9935
  35   1.0000      -0.718487       -19.5510
  36   1.0000      -0.678425       -18.4609
  37   1.0000      -0.659475       -17.9452
  38   1.0000      -0.649450       -17.6724
  39   1.0000      -0.632034       -17.1985
  40   1.0000      -0.601408       -16.3651
  41   1.0000      -0.583214       -15.8700
  42   1.0000      -0.578033       -15.7291
  43   1.0000      -0.553833       -15.0706
  44   1.0000      -0.535946       -14.5838
  45   1.0000      -0.531911       -14.4740
  46   1.0000      -0.517901       -14.0928
  47   1.0000      -0.507460       -13.8087
  48   1.0000      -0.485781       -13.2188
  49   1.0000      -0.471715       -12.8360
  50   1.0000      -0.470448       -12.8015
  51   1.0000      -0.462959       -12.5978
  52   1.0000      -0.451521       -12.2865
  53   1.0000      -0.449441       -12.2299
  54   1.0000      -0.436025       -11.8648
  55   1.0000      -0.426739       -11.6121
  56   1.0000      -0.418197       -11.3797
  57   1.0000      -0.412810       -11.2331
  58   1.0000      -0.399586       -10.8733
  59   1.0000      -0.396582       -10.7916
  60   1.0000      -0.394369       -10.7313
  61   1.0000      -0.385758       -10.4970
  62   1.0000      -0.382211       -10.4005
  63   1.0000      -0.361336        -9.8325
  64   1.0000      -0.361162        -9.8277
  65   1.0000      -0.346774        -9.4362
  66   1.0000      -0.343601        -9.3499
  67   1.0000      -0.342080        -9.3085
  68   1.0000      -0.292870        -7.9694
  69   1.0000      -0.288570        -7.8524
  70   1.0000      -0.282897        -7.6980
  71   1.0000      -0.280402        -7.6301
  72   1.0000      -0.276132        -7.5139
  73   1.0000      -0.246021        -6.6946
  74   1.0000      -0.236095        -6.4245
  75   1.0000      -0.199312        -5.4235
  76   0.0000      -0.114580        -3.1179
  77   0.0000      -0.105812        -2.8793
  78   0.0000      -0.088481        -2.4077
  79   0.0000      -0.082301        -2.2395
  80   0.0000      -0.072898        -1.9836

                 SPIN DOWN ORBITALS
  NO   OCC          E(Eh)            E(eV)
   0   1.0000     -10.235069      -278.5104
   1   1.0000     -10.226434      -278.2754
   2   1.0000     -10.225680      -278.2549
   3   1.0000     -10.223757      -278.2026
   4   1.0000     -10.218002      -278.0460
   5   1.0000     -10.217949      -278.0445
   6   1.0000     -10.213609      -277.9264
   7   1.0000     -10.204171      -277.6696
   8   1.0000     -10.203253      -277.6446
   9   1.0000     -10.202132      -277.6141
  10   1.0000     -10.201423      -277.5948
  11   1.0000     -10.200409      -277.5672
  12   1.0000     -10.198760      -277.5224
  13   1.0000     -10.198010      -277.5019
  14   1.0000     -10.197703      -277.4936
  15   1.0000     -10.196654      -277.4651
  16   1.0000     -10.196004      -277.4474
  17   1.0000     -10.194286      -277.4006
  18   1.0000     -10.191829      -277.3338
  19   1.0000     -10.190941      -277.3096
  20   1.0000     -10.190884      -277.3081
  21   1.0000     -10.190438      -277.2959
  22   1.0000     -10.185989      -277.1749
  23   1.0000     -10.184885      -277.1448
  24   1.0000      -0.935345       -25.4520
  25   1.0000      -0.905801       -24.6481
  26   1.0000      -0.881305       -23.9815
  27   1.0000      -0.856006       -23.2931
  28   1.0000      -0.835703       -22.7406
  29   1.0000      -0.829267       -22.5655
  30   1.0000      -0.798091       -21.7172
  31   1.0000      -0.780279       -21.2325
  32   1.0000      -0.768992       -20.9253
  33   1.0000      -0.742035       -20.1918
  34   1.0000      -0.734726       -19.9929
  35   1.0000      -0.718610       -19.5544
  36   1.0000      -0.678301       -18.4575
  37   1.0000      -0.659829       -17.9549
  38   1.0000      -0.649292       -17.6681
  39   1.0000      -0.631998       -17.1975
  40   1.0000      -0.600129       -16.3303
  41   1.0000      -0.585158       -15.9230
  42   1.0000      -0.577660       -15.7189
  43   1.0000      -0.553890       -15.0721
  44   1.0000      -0.536237       -14.5917
  45   1.0000      -0.530871       -14.4457
  46   1.0000      -0.517249       -14.0751
  47   1.0000      -0.508077       -13.8255
  48   1.0000      -0.485771       -13.2185
  49   1.0000      -0.471494       -12.8300
  50   1.0000      -0.471050       -12.8179
  51   1.0000      -0.462991       -12.5986
  52   1.0000      -0.451547       -12.2872
  53   1.0000      -0.449423       -12.2294
  54   1.0000      -0.436317       -11.8728
  55   1.0000      -0.426435       -11.6039
  56   1.0000      -0.418097       -11.3770
  57   1.0000      -0.412784       -11.2324
  58   1.0000      -0.400003       -10.8846
  59   1.0000      -0.396628       -10.7928
  60   1.0000      -0.393326       -10.7029
  61   1.0000      -0.386258       -10.5106
  62   1.0000      -0.381981       -10.3942
  63   1.0000      -0.361292        -9.8313
  64   1.0000      -0.361176        -9.8281
  65   1.0000      -0.347264        -9.4495
  66   1.0000      -0.343783        -9.3548
  67   1.0000      -0.341952        -9.3050
  68   1.0000      -0.292892        -7.9700
  69   1.0000      -0.288749        -7.8573
  70   1.0000      -0.283059        -7.7024
  71   1.0000      -0.280292        -7.6271
  72   1.0000      -0.275924        -7.5083
  73   1.0000      -0.246004        -6.6941
  74   1.0000      -0.236003        -6.4220
  75   1.0000      -0.199420        -5.4265
  76   0.0000      -0.114369        -3.1121
  77   0.0000      -0.105792        -2.8787
  78   0.0000      -0.088458        -2.4071
  79   0.0000      -0.083229        -2.2648
  80   0.0000      -0.071788        -1.9535

MULLIKEN ATOMIC CHARGES AND SPIN POPULATIONS
--------------------------------------------
   0 C :    0.060547    0.210796
   1 C :   -0.085288   -0.207947
   2 C :    0.936001   -0.054785
   3 C :   -0.852690    0.123746
   4 C :   -0.782607    0.034125
   5 C :    1.117571   -0.009872
   6 C :   -0.180116    0.012641
   7 C :   -0.042449   -0.009962
   8 C :    0.576570    0.009677
   9 C :   -0.467598   -0.009063
  10 C :   -0.221948    0.010429
  11 C :    0.724089   -0.008843
  12 C :   -0.695655    0.008238
  13 C :   -0.349051   -0.012652
  14 C :    1.411741    0.011896
  15 C :   -0.382723   -0.031592
  16 C :   -1.206014   -0.106513
  17 C :    0.935331    0.044292
  18 C :    0.042249   -0.001018
  19 C :   -0.335261   -0.004999
  20 C :   -0.049999   -0.002920
  21 C :   -0.839908   -0.010444
  22 H :    0.151894    0.000218
  23 H :    0.144145   -0.001319
  24 H :    0.140042    0.000463
  25 H :    0.129643   -0.000549
  26 H :    0.131696   -0.000411
  27 H :    0.125376    0.000421
  28 H :    0.129050    0.001234
  29 H :    0.147590   -0.000136
  30 C :   -0.064820    0.001961
  31 C :   -0.347410    0.002891
Sum of atomic charges         :   -0.0000000

LOEWDIN ATOMIC CHARGES AND SPIN POPULATIONS
-------------------------------------------
   0 C :    0.015259    0.440918
   1 C :    0.012473   -0.441075
   2 C :   -0.088771    0.013623
   3 C :   -0.012345   -0.016905
   4 C :   -0.067629    0.021129
   5 C :   -0.032786   -0.008174
   6 C :    0.014302    0.006921
   7 C :    0.022771   -0.007180
   8 C :   -0.057133    0.006695
   9 C :   -0.031635   -0.005885
  10 C :   -0.028573    0.006723
  11 C :   -0.068867   -0.005475
  12 C :   -0.014183    0.005381
  13 C :   -0.030555   -0.005773
  14 C :   -0.039802    0.006481
  15 C :   -0.065294   -0.020527
  16 C :   -0.018353    0.015634
  17 C :   -0.089828   -0.013626
  18 C :    0.035261   -0.000824
  19 C :   -0.032101   -0.001885
  20 C :   -0.041221    0.008875
  21 C :    0.013190    0.000797
  22 H :    0.091684   -0.000073
  23 H :    0.086509    0.000253
  24 H :    0.084076    0.000001
  25 H :    0.081573   -0.000007
  26 H :    0.082416   -0.000004
  27 H :    0.081516    0.000016
  28 H :    0.081662   -0.000259
  29 H :    0.090547    0.000066
  30 C :   -0.040219   -0.007030
  31 C :   -0.033943    0.001189

  Mayer bond orders larger than 0.100000
B(  0-C ,  1-C ) :   1.5028 B(  0-C ,  5-C ) :   0.1526 B(  0-C ,  7-C ) :  -0.2138
B(  0-C , 13-C ) :   0.1719 B(  0-C , 14-C ) :  -0.4160 B(  0-C , 15-C ) :   0.3434
B(  0-C , 17-C ) :   0.2332 B(  0-C , 21-C ) :   0.7134 B(  1-C ,  2-C ) :   0.1098
B(  1-C ,  3-C ) :  -0.1111 B(  1-C ,  4-C ) :   0.2474 B(  1-C ,  5-C ) :  -0.3227
B(  1-C , 14-C ) :   0.2234 B(  1-C , 15-C ) :  -0.1711 B(  1-C , 16-C ) :   0.1391
B(  1-C , 17-C ) :  -0.1373 B(  1-C , 21-C ) :   0.8037 B(  1-C , 30-C ) :   0.1073
B(  1-C , 31-C ) :   0.1248 B(  2-C ,  3-C ) :   0.8673 B(  2-C ,  4-C ) :  -0.1001
B(  2-C ,  5-C ) :   0.8678 B(  2-C ,  6-C ) :  -0.1707 B(  2-C , 12-C ) :   0.2372
B(  2-C , 13-C ) :   0.1234 B(  2-C , 14-C ) :  -0.2279 B(  2-C , 15-C ) :   0.2018
B(  2-C , 16-C ) :  -0.2291 B(  2-C , 18-C ) :  -0.1340 B(  2-C , 21-C ) :   0.9360
B(  2-C , 30-C ) :  -0.1371 B(  3-C ,  4-C ) :   1.5342 B(  3-C ,  5-C ) :  -0.6899
B(  3-C ,  6-C ) :   0.3373 B(  3-C , 12-C ) :  -0.1319 B(  3-C , 13-C ) :   0.1450
B(  3-C , 18-C ) :   0.1205 B(  3-C , 20-C ) :   0.1848 B(  3-C , 21-C ) :   0.7688
B(  3-C , 22-H ) :   0.8611 B(  4-C ,  6-C ) :  -0.1005 B(  4-C ,  9-C ) :   0.1358
B(  4-C , 19-C ) :   0.2685 B(  4-C , 20-C ) :   0.4126 B(  4-C , 23-H ) :   1.1287
B(  5-C ,  6-C ) :   0.4241 B(  5-C ,  7-C ) :  -0.1037 B(  5-C , 13-C ) :  -0.1512
B(  5-C , 14-C ) :   0.3860 B(  5-C , 16-C ) :   0.1729 B(  5-C , 17-C ) :  -0.1970
B(  5-C , 19-C ) :  -0.1470 B(  5-C , 20-C ) :   1.9305 B(  5-C , 21-C ) :   0.1319
B(  5-C , 23-H ) :  -0.4447 B(  5-C , 30-C ) :   0.1902 B(  5-C , 31-C ) :  -0.2870
B(  6-C ,  7-C ) :   1.3840 B(  6-C , 11-C ) :   0.1187 B(  6-C , 13-C ) :   0.1222
B(  6-C , 15-C ) :   0.1414 B(  6-C , 16-C ) :   0.3979 B(  6-C , 17-C ) :  -0.1298
B(  6-C , 19-C ) :   0.4531 B(  6-C , 20-C ) :   0.1434 B(  6-C , 21-C ) :  -0.5085
B(  7-C ,  8-C ) :   1.2309 B(  7-C ,  9-C ) :  -1.1310 B(  7-C , 12-C ) :   0.1053
B(  7-C , 14-C ) :  -0.1050 B(  7-C , 15-C ) :  -0.1442 B(  7-C , 16-C ) :  -0.3925
B(  7-C , 17-C ) :   0.6320 B(  7-C , 18-C ) :   0.1027 B(  7-C , 19-C ) :   0.3332
B(  7-C , 20-C ) :   0.2999 B(  7-C , 21-C ) :   0.1463 B(  8-C ,  9-C ) :   0.8255
B(  8-C , 10-C ) :  -0.2340 B(  8-C , 11-C ) :   0.2039 B(  8-C , 12-C ) :  -0.1104
B(  8-C , 13-C ) :   0.1330 B(  8-C , 17-C ) :  -0.1998 B(  8-C , 19-C ) :   1.6675
B(  8-C , 21-C ) :   0.1248 B(  8-C , 24-H ) :  -0.2036 B(  8-C , 31-C ) :   0.1249
B(  9-C , 10-C ) :   1.1463 B(  9-C , 11-C ) :  -0.2472 B(  9-C , 19-C ) :   0.1168
B(  9-C , 20-C ) :   0.1111 B(  9-C , 24-H ) :   1.1323 B(  9-C , 31-C ) :   0.2782
B( 10-C , 11-C ) :   1.0001 B( 10-C , 12-C ) :  -0.8289 B( 10-C , 14-C ) :  -0.1308
B( 10-C , 15-C ) :   0.2562 B( 10-C , 19-C ) :   0.3187 B( 10-C , 21-C ) :  -0.1636
B( 10-C , 25-H ) :   0.9758 B( 10-C , 26-H ) :  -0.1413 B( 10-C , 31-C ) :   0.1744
B( 11-C , 12-C ) :   0.9124 B( 11-C , 13-C ) :  -0.1861 B( 11-C , 14-C ) :   0.4155
B( 11-C , 15-C ) :  -0.1162 B( 11-C , 16-C ) :  -0.1109 B( 11-C , 21-C ) :   0.1645
B( 11-C , 25-H ) :  -0.1335 B( 11-C , 26-H ) :  -0.1392 B( 11-C , 27-H ) :  -0.1035
B( 11-C , 31-C ) :   1.6662 B( 12-C , 13-C ) :   0.8339 B( 12-C , 14-C ) :  -0.4866
B( 12-C , 16-C ) :   0.1334 B( 12-C , 26-H ) :   1.0808 B( 12-C , 30-C ) :   0.6207
B( 12-C , 31-C ) :   0.3085 B( 13-C , 14-C ) :   0.3579 B( 13-C , 16-C ) :   0.1319
B( 13-C , 17-C ) :  -0.1772 B( 13-C , 18-C ) :  -0.1045 B( 13-C , 20-C ) :  -0.1354
B( 13-C , 21-C ) :  -0.3077 B( 13-C , 27-H ) :   1.1784 B( 13-C , 30-C ) :   0.1789
B( 13-C , 31-C ) :   0.3268 B( 14-C , 16-C ) :  -0.7269 B( 14-C , 17-C ) :   0.8253
B( 14-C , 19-C ) :  -0.1999 B( 14-C , 20-C ) :   0.1878 B( 14-C , 26-H ) :  -0.1290
B( 14-C , 27-H ) :  -0.4542 B( 14-C , 28-H ) :  -0.5419 B( 14-C , 30-C ) :   2.0468
B( 14-C , 31-C ) :   0.1158 B( 15-C , 16-C ) :   1.5156 B( 15-C , 17-C ) :  -0.1089
B( 15-C , 19-C ) :  -0.1706 B( 15-C , 28-H ) :   1.0794 B( 16-C , 17-C ) :   0.7610
B( 16-C , 18-C ) :   0.2236 B( 16-C , 21-C ) :   1.0055 B( 16-C , 28-H ) :   0.1464
B( 16-C , 29-H ) :   0.9619 B( 16-C , 30-C ) :   0.1025 B( 17-C , 20-C ) :  -0.1110
B( 17-C , 21-C ) :   0.8916 B( 18-C , 19-C ) :   0.2820 B( 18-C , 20-C ) :   1.5870
B( 18-C , 21-C ) :   1.3031 B( 18-C , 30-C ) :   1.4572 B( 18-C , 31-C ) :   0.1983
B( 19-C , 20-C ) :   0.9136 B( 19-C , 21-C ) :   0.2275 B( 19-C , 31-C ) :   1.5839
B( 20-C , 21-C ) :   0.4075 B( 20-C , 23-H ) :   0.1142 B( 20-C , 30-C ) :   0.1771
B( 20-C , 31-C ) :   0.1390 B( 21-C , 22-H ) :   0.1356 B( 21-C , 29-H ) :   0.1402
B( 21-C , 30-C ) :   0.3514 B( 21-C , 31-C ) :   0.2617 B( 26-H , 31-C ) :   0.2277
B( 30-C , 31-C ) :   1.0305

-----------------------------------------------------------------------------
         ABSORPTION SPECTRUM VIA TRANSITION ELECTRIC DIPOLE MOMENTS
-----------------------------------------------------------------------------
State   Energy    Wavelength  fosc         T2        TX        TY        TZ
        (cm-1)      (nm)                 (au**2)    (au)      (au)      (au)
-----------------------------------------------------------------------------
   1   10091.4    990.9   0.000001044   0.00003   0.00000  -0.00001   0.00584
   2   11295.6    885.3   0.000481682   0.01404   0.00000  -0.00012   0.11848
   3   12081.4    827.7   0.000017886   0.00049   0.00807  -0.02055  -0.00002
   4   14502.8    689.5   0.005500906   0.12487  -0.30594  -0.17683  -0.00018
   5   16106.6    620.9   0.000029627   0.00061  -0.00381   0.02431   0.00002
   6   16831.3    594.1   0.000149474   0.00292  -0.00000  -0.00006   0.05407
   7   17239.9    580.0   0.000792369   0.01513  -0.06677   0.10331   0.00011
   8   18336.2    545.4   0.000003090   0.00006  -0.00000   0.00001  -0.00745
   9   18830.8    531.0   0.000000603   0.00001   0.00306   0.00107   0.00000
  10   18853.0    530.4   0.000029255   0.00051   0.00001  -0.00003   0.02260
  11   19190.6    521.1   0.000000761   0.00001  -0.00000  -0.00000   0.00361
  12   19879.2    503.0   0.000136249   0.00226   0.03321   0.03396   0.00003
  13   20081.1    498.0   0.000030838   0.00051   0.01220   0.01889   0.00002
  14   22071.4    453.1   0.000146279   0.00218   0.04482  -0.01316  -0.00001
  15   22938.7    435.9   0.027767195   0.39851  -0.59675   0.20590   0.00020
  16   23137.5    432.2   0.000000001   0.00000  -0.00001   0.00000   0.00009
  17   24318.7    411.2   0.106075490   1.43598   1.07887   0.52156   0.00055
  18   24526.3    407.7   0.011484527   0.15415  -0.38970  -0.04782  -0.00006
  19   24880.4    401.9   0.000002523   0.00003  -0.00000   0.00000  -0.00578
  20   24903.7    401.5   0.000008678   0.00011  -0.00001  -0.00001   0.01071
  21   25296.2    395.3   0.000470014   0.00612   0.07794   0.00649   0.00001
  22   25858.7    386.7   0.000019225   0.00024   0.00001  -0.00013   0.01564
  23   25991.7    384.7   0.056056543   0.71001  -0.23838   0.80820   0.00081
  24   26178.1    382.0   0.000001339   0.00002  -0.00001   0.00001  -0.00410
  25   26411.1    378.6   0.001628126   0.02029  -0.05452   0.13161   0.00013
  26   26650.8    375.2   0.000562084   0.00694   0.00866   0.08288   0.00008
  27   26866.4    372.2   0.000196136   0.00240  -0.00001   0.00005  -0.04902
  28   27098.6    369.0   0.000077174   0.00094   0.00651  -0.02992  -0.00003
  29   28196.2    354.7   0.000090990   0.00106   0.00000   0.00003  -0.03259
  30   28870.0    346.4   0.000002491   0.00003   0.00000   0.00001  -0.00533
  31   29420.4    339.9   0.000064791   0.00073  -0.01967   0.01838   0.00002
  32   30194.8    331.2   0.001482270   0.01616  -0.03148   0.12317   0.00013
  33   30308.8    329.9   0.050551397   0.54909  -0.15099   0.72546   0.00074
  34   30718.1    325.5   0.002948674   0.03160  -0.12546  -0.12594  -0.00014
  35   30738.9    325.3   0.000000059   0.00000  -0.00001  -0.00001   0.00079
  36   31137.3    321.2   0.000001780   0.00002   0.00000  -0.00001   0.00434
  37   31543.4    317.0   0.000004740   0.00005  -0.00001  -0.00001   0.00703
  38   31651.6    315.9   0.000446777   0.00465   0.00003   0.00008  -0.06817
  39   31902.9    313.5   0.000077112   0.00080   0.00010   0.00004  -0.02821
  40   31964.9    312.8   0.036512062   0.37604   0.54304   0.28486   0.00029
  41   32099.0    311.5   0.001004262   0.01030  -0.00005   0.00007  -0.10149
  42   32174.8    310.8   0.000432525   0.00443   0.01764   0.06414   0.00006
  43   32802.9    304.9   0.000189793   0.00190   0.01209   0.04194   0.00004
  44   32996.4    303.1   0.000239594   0.00239  -0.01528  -0.04644  -0.00005
  45   33090.9    302.2   0.000045571   0.00045  -0.00001  -0.00003   0.02129
  46   33150.5    301.7   0.000060226   0.00060  -0.02322  -0.00768  -0.00001
  47   33347.2    299.9   0.001375065   0.01358  -0.08079   0.08395   0.00009
  48   33521.9    298.3   0.000001490   0.00001   0.00000   0.00001   0.00382
  49   33714.9    296.6   0.064919608   0.63391   0.24877  -0.75632  -0.00077
  50   34123.1    293.1   0.021346962   0.20595  -0.43462   0.13061   0.00012
  51   34239.7    292.1   0.004934816   0.04745   0.15124   0.15676   0.00016
  52   34583.7    289.2   0.000002259   0.00002  -0.00000   0.00001  -0.00464
  53   35063.1    285.2   0.000354166   0.00333   0.02608   0.05143   0.00005
  54   35200.4    284.1   0.000279219   0.00261  -0.00001   0.00006  -0.05110
  55   35828.5    279.1   0.002255837   0.02073   0.03921  -0.13853  -0.00014
  56   36066.7    277.3   0.003102689   0.02832  -0.16617  -0.02663  -0.00002
  57   36104.8    277.0   0.001115391   0.01017  -0.09966  -0.01542  -0.00003
  58   36132.2    276.8   0.000030540   0.00028   0.00002   0.00004  -0.01668
  59   36823.5    271.6   0.000183548   0.00164  -0.00027   0.00043  -0.04051
  60   36904.5    271.0   0.171543031   1.53028  -0.75494   0.97997   0.00097
  61   36914.2    270.9   0.000146351   0.00131  -0.00064   0.00078   0.03611
  62   37314.6    268.0   0.002741821   0.02419   0.14118   0.06527   0.00006
  63   37384.0    267.5   0.000018851   0.00017  -0.00005  -0.00001   0.01288
  64   37392.4    267.4   0.000324567   0.00286  -0.00000   0.00002  -0.05346
  65   37734.1    265.0   0.140910624   1.22938   0.80845   0.75880   0.00078
  66   37891.3    263.9   0.000412314   0.00358   0.00041   0.00020   0.05985
  67   37907.3    263.8   0.146003176   1.26799  -0.92077  -0.64821  -0.00063
  68   38247.9    261.5   0.000143853   0.00124   0.03322  -0.01160  -0.00001
  69   38382.8    260.5   0.000045930   0.00039  -0.00002  -0.00002   0.01985
  70   38721.2    258.3   0.003181850   0.02705   0.02461   0.16262   0.00016
  71   38824.6    257.6   0.093544816   0.79321   0.19712  -0.86853  -0.00087
  72   38834.1    257.5   0.000059557   0.00050   0.00001  -0.00006   0.02247
  73   38937.2    256.8   0.000420317   0.00355   0.00001   0.00008  -0.05961
  74   38995.3    256.4   0.000062653   0.00053   0.00002  -0.00002   0.02300
  75   39051.4    256.1   0.000662926   0.00559  -0.03651   0.06524   0.00007
  76   39135.0    255.5   0.000587719   0.00494  -0.03214   0.06254   0.00005
  77   39138.9    255.5   0.000018548   0.00016  -0.00002   0.00002   0.01249
  78   39277.5    254.6   0.000029793   0.00025  -0.00000   0.00001   0.01580
  79   39640.9    252.3   0.000014746   0.00012   0.00000   0.00019  -0.01106
  80   39858.0    250.9   0.063874237   0.52758   0.00967   0.72628   0.00073
  81   39996.2    250.0   0.026795609   0.22056   0.07697  -0.46328  -0.00046
  82   40039.8    249.8   0.001682023   0.01383   0.08220   0.08410   0.00009
  83   40093.1    249.4   0.000002846   0.00002  -0.00000   0.00006  -0.00483
  84   40834.2    244.9   0.000017374   0.00014  -0.00239  -0.01159  -0.00001
  85   41064.9    243.5   0.000231849   0.00186   0.01515  -0.04036  -0.00004
  86   41177.7    242.9   0.000000007   0.00000  -0.00000  -0.00001  -0.00024
  87   41282.3    242.2   0.002076711   0.01656  -0.00001   0.00007  -0.12869
  88   41532.5    240.8   0.076828136   0.60899  -0.14955  -0.76591  -0.00077
  89   41635.5    240.2   0.016187125   0.12799  -0.05080  -0.35413  -0.00035
  90   41661.7    240.0   0.000004036   0.00003   0.00000   0.00001  -0.00565
  91   41723.9    239.7   0.000460572   0.00363   0.00002   0.00006  -0.06028
  92   42169.3    237.1   0.187130429   1.46091   1.09461  -0.51258  -0.00050
  93   42544.6    235.0   0.000621795   0.00481   0.06429  -0.02603  -0.00003
  94   43634.4    229.2   0.000023285   0.00018   0.00002  -0.00003   0.01325
  95   43652.9    229.1   0.001126278   0.00849  -0.06185   0.06832   0.00007
  96   43743.9    228.6   0.000000000   0.00000  -0.00000  -0.00000  -0.00000
  97   43743.9    228.6   0.000000000   0.00000  -0.00000  -0.00000   0.00000
  98   43743.9    228.6   0.000000000   0.00000   0.00000   0.00000  -0.00000
  99   43743.9    228.6   0.000000000   0.00000  -0.00000   0.00000  -0.00000
 100   43743.9    228.6   0.000000000   0.00000  -0.00000   0.00000  -0.00000
 101   43743.9    228.6   0.000000000   0.00000  -0.00000  -0.00000   0.00000
 102   43743.9    228.6   0.000000000   0.00000   0.00000   0.00000   0.00000
 103   43743.9    228.6   0.000000000   0.00000  -0.00000   0.00000  -0.00000
 104   43743.9    228.6   0.000000000   0.00000   0.00000  -0.00000  -0.00000
 105   43743.9    228.6   0.000000000   0.00000   0.00000   0.00000   0.00000
 106   43749.1    228.6   0.003745948   0.02819   0.06739  -0.15377  -0.00015
 107   43767.6    228.5   0.000000000   0.00000   0.00000  -0.00000  -0.00000
 108   43767.6    228.5   0.000000000   0.00000  -0.00000   0.00000   0.00000
 109   43767.6    228.5   0.000000000   0.00000  -0.00000  -0.00000  -0.00000
 110   43767.6    228.5   0.000000000   0.00000  -0.00000  -0.00000   0.00000
 111   43767.6    228.5   0.000000000   0.00000   0.00000   0.00000  -0.00000
 112   43767.6    228.5   0.000000000   0.00000  -0.00000  -0.00000  -0.00000
 113   43767.6    228.5   0.000000000   0.00000   0.00000  -0.00000  -0.00000
 114   43767.6    228.5   0.000000000   0.00000  -0.00000  -0.00000   0.00000
 115   43767.6    228.5   0.000000000   0.00000  -0.00000   0.00000  -0.00000
 116   43767.6    228.5   0.000000000   0.00000  -0.00000   0.00000   0.00000
 117   43824.3    228.2   0.000579582   0.00435  -0.00003   0.00009  -0.06598
 118   43928.5    227.6   0.000004431   0.00003  -0.00001   0.00001   0.00576
 119   44128.6    226.6   0.913160083   6.81244  -1.40215   2.20145   0.00221
 120   44203.1    226.2   0.000014661   0.00011   0.00003  -0.00003  -0.01045
 121   44387.3    225.3   0.000249082   0.00185  -0.00012   0.00023  -0.04298
 122   44653.8    223.9   0.000914628   0.00674  -0.02373   0.07861   0.00008
 123   44759.1    223.4   0.000039272   0.00029   0.00000  -0.00002   0.01700
 124   44818.7    223.1   0.000261497   0.00192  -0.00002  -0.00004   0.04383
 125   45103.3    221.7   0.000003536   0.00003  -0.00000   0.00001  -0.00508
 126   45192.7    221.3   0.000006627   0.00005  -0.00002   0.00003  -0.00695
 127   45241.6    221.0   0.006675471   0.04858   0.09389  -0.19940  -0.00020
 128   45263.5    220.9   0.000036939   0.00027   0.00001   0.00001  -0.01639
 129   45478.7    219.9   0.000504487   0.00365  -0.01174  -0.05928  -0.00006
 130   45805.2    218.3   0.130580739   0.93851  -0.46130   0.85189   0.00086
 131   45916.0    217.8   0.806603686   5.78324   1.04505  -2.16590  -0.00218
 132   46291.9    216.0   0.002642373   0.01879   0.12989  -0.04383  -0.00004
 133   46794.5    213.7   0.000000235   0.00000   0.00000   0.00002  -0.00129
 134   46867.1    213.4   0.000037230   0.00026  -0.00002  -0.00006  -0.01617
 135   46877.8    213.3   0.115468890   0.81091  -0.32364  -0.84034  -0.00086
 136   46915.6    213.1   0.000285573   0.00200   0.00003   0.00007  -0.04476
 137   46926.3    213.1   0.001951201   0.01369   0.03496  -0.11165  -0.00011
 138   46980.3    212.9   0.000207899   0.00146   0.00000  -0.00004   0.03817
 139   47036.0    212.6   0.000071513   0.00050  -0.00002  -0.00003   0.02237
 140   47082.3    212.4   0.018910882   0.13223   0.28480   0.22609   0.00023
 141   47203.5    211.8   0.001885012   0.01315  -0.11465   0.00168  -0.00000
 142   47355.2    211.2   0.000001393   0.00001  -0.00001   0.00001  -0.00311
 143   47752.6    209.4   0.980095239   6.75689   2.51092   0.67242   0.00071
 144   47877.2    208.9   0.000000006   0.00000   0.00003   0.00001  -0.00021
 145   48047.6    208.1   0.000000277   0.00000   0.00008   0.00003  -0.00137
 146   48053.8    208.1   0.004575052   0.03134   0.12428   0.12609   0.00013
 147   48213.8    207.4   0.000587919   0.00401  -0.00592  -0.06308  -0.00007
 148   48216.1    207.4   0.000004249   0.00003   0.00013  -0.00005   0.00538
 149   48229.1    207.3   0.037120400   0.25338   0.49535   0.08951   0.00009
 150   48353.5    206.8   0.083948356   0.57156  -0.63174  -0.41529  -0.00042
 151   48408.6    206.6   0.010423199   0.07089  -0.21842  -0.15224  -0.00015
 152   48500.6    206.2   0.000024894   0.00017   0.00000  -0.00002   0.01300
 153   48549.6    206.0   0.001325640   0.00899   0.00010  -0.00008   0.09481
 154   48646.2    205.6   0.002706543   0.01832   0.00001  -0.00010   0.13534
 155   48748.5    205.1   0.000031091   0.00021  -0.00003   0.00002  -0.01449
 156   48806.6    204.9   0.001423646   0.00960   0.09023  -0.03823  -0.00002
 157   48927.5    204.4   0.002727078   0.01835  -0.13431   0.01758   0.00000
 158   49032.8    203.9   0.000185032   0.00124   0.00001  -0.00003   0.03525
 159   49165.6    203.4   0.000678654   0.00454   0.00012   0.00018  -0.06741
 160   49191.8    203.3   0.004116892   0.02755   0.00005   0.00027  -0.16599
 161   49212.6    203.2   0.140815847   0.94200  -0.87081  -0.42860  -0.00048
 162   49359.7    202.6   0.000386742   0.00258   0.00031  -0.00007  -0.05079
 163   49401.5    202.4   0.114682639   0.76425   0.69419  -0.53136  -0.00054
 164   49498.1    202.0   0.000837280   0.00557   0.00015  -0.00029   0.07462
 165   49587.6    201.7   0.000000855   0.00001   0.00005   0.00003   0.00238
 166   49630.8    201.5   0.005625463   0.03731   0.00099  -0.19317  -0.00020
 167   49650.8    201.4   0.032128926   0.21303  -0.39687   0.23564   0.00024
 168   49670.1    201.3   0.000016536   0.00011   0.00024  -0.00012   0.01047
 169   49714.7    201.1   0.000003876   0.00003  -0.00003   0.00007  -0.00507
 170   49743.1    201.0   0.014627978   0.09681  -0.25758   0.17453   0.00017
 171   49828.9    200.7   0.000003200   0.00002  -0.00006  -0.00007   0.00460
 172   49913.0    200.3   0.000395237   0.00261   0.04629   0.02154   0.00002
 173   50006.1    200.0   0.198634581   1.30770  -0.47333   1.04099   0.00114
 174   50010.0    200.0   0.000048307   0.00032  -0.00259   0.00570  -0.01670
 175   50058.1    199.8   0.000199566   0.00131   0.00006   0.00004  -0.03623
 176   50135.3    199.5   0.007036009   0.04620  -0.20300   0.07065   0.00007
 177   50173.5    199.3   0.000218482   0.00143  -0.00004   0.00013  -0.03786
 178   50385.5    198.5   0.099999361   0.65338   0.51048   0.62673   0.00063
 179   50455.4    198.2   0.001889346   0.01233  -0.01392   0.11015   0.00011
 180   50517.5    198.0   0.215960030   1.40737  -0.20063  -1.16924  -0.00118
 181   50591.0    197.7   0.000032932   0.00021  -0.00003  -0.00006   0.01464
 182   50629.7    197.5   0.042117351   0.27386   0.02461   0.52274   0.00052
 183   50689.3    197.3   0.000001486   0.00001   0.00001  -0.00005  -0.00311
 184   50876.6    196.6   0.000409288   0.00265   0.00001   0.00004  -0.05146
 185   50943.3    196.3   0.000051179   0.00033   0.00000  -0.00003   0.01819
 186   50969.9    196.2   0.002270145   0.01466   0.06703  -0.10084  -0.00011
 187   51082.8    195.8   0.000217649   0.00140  -0.00000  -0.00004   0.03745
 188   51253.2    195.1   0.088782047   0.57027  -0.58869  -0.47299  -0.00049
 189   51319.3    194.9   0.000022513   0.00014   0.00001   0.00001  -0.01202
 190   51373.5    194.7   0.000034952   0.00022  -0.00000  -0.00002   0.01497
 191   51418.6    194.5   0.016097695   0.10307   0.26411   0.18251   0.00018
 192   51516.1    194.1   0.003169674   0.02026   0.00001   0.00014  -0.14232
 193   51577.3    193.9   0.001055193   0.00674   0.05758  -0.05847  -0.00006
 194   51660.3    193.6   0.000050644   0.00032  -0.00000   0.00002  -0.01796
 195   51772.0    193.2   0.000978767   0.00622  -0.00001  -0.00009   0.07889
 196   51796.7    193.1   0.000000000   0.00000  -0.00000  -0.00000  -0.00000

Dispersion correction           -0.097949005
FINAL SINGLE POINT ENERGY      -918.782788263723

DIPOLE MOMENT
-------------
                                X             Y             Z
Electronic contribution:     -3.62708      -6.57957      -0.00673
Nuclear contribution   :      4.00821       7.55833       0.00773
                        -----------------------------------------
Total Dipole Moment    :      0.38113       0.97876       0.00100
                        -----------------------------------------
Magnitude (a.u.)       :      1.05035
Magnitude (Debye)      :      2.66978

Rotational constants in cm-1:     0.013365     0.009678     0.005613
Rotational constants in MHz :   400.680918   290.133593   168.281055

                             ****ORCA TERMINATED NORMALLY****
TOTAL RUN TIME: 0 days 9 hours 47 minutes 13 seconds 81 msec
