                         Program Version 5.0.4 -  RELEASE  -
|  1> !M062x def2-tzvp opt freq tightscf
|  2>
|  3> %freq
|  4> Temp 298.15,10,20,50,100,6000,8000,10000
|  5> end
|  6>
|  7> %maxcore 4000
|  8> %pal
|  9> nprocs 3
| 10> end
| 11>
| 12>
| 13> %geom
| 14>   maxiter 2000
| 15>   end
| 16>
| 17> * xyz 0 1
| 18>   C   2.46362427987247     -2.85071308273857     -0.00000218907091
| 19>   C   1.27719400513090     -3.52585311672403     -0.00003902795947
| 20>   C   0.05064934326115     -2.82613554872827     -0.00011828018749
| 21>   C   -1.19925193688694     -3.46606389677068     -0.00015928151260
| 22>   C   -2.39885271805658     -2.87183824187673     -0.00023283554738
| 23>   C   -2.43518053153382     -1.44080024452875     -0.00027277196623
| 24>   C   -3.66777674509120     -0.75191121775761     -0.00034379554662
| 25>   C   -3.71279324924276      0.61270000430768     -0.00038290810371
| 26>   C   -2.51870888891228      1.35470401292599     -0.00035207453727
| 27>   C   -2.33852946574720      2.75004532075493     -0.00038523866368
| 28>   C   -1.29227857579710      3.37936032270345     -0.00036005870682
| 29>   C   0.02296635156368      2.87874227377718     -0.00029143038758
| 30>   C   1.23211767469076      3.59211777508479     -0.00026457178571
| 31>   C   2.42594730830480      2.92563510630820     -0.00019121984698
| 32>   C   2.44893445959464      1.52227723319545     -0.00014614397662
| 33>   C   3.55845924150033      0.65762020353451     -0.00006795876215
| 34>   C   3.57066637986837     -0.56331157183495     -0.00002324805222
| 35>   C   2.47403114247392     -1.44414615823703     -0.00004617494814
| 36>   C   1.25557023434205     -0.69183165762109     -0.00012491861115
| 37>   C   1.23800989899349      0.75081893774134     -0.00017659337158
| 38>   C   -0.00359548669936      1.44369816359284     -0.00024809051538
| 39>   C   -1.24385874208543      0.70472511229996     -0.00028011039122
| 40>   C   -1.22033926149096     -0.71624674943317     -0.00023589301594
| 41>   C   0.03056944314590     -1.40895937212992     -0.00016349124726
| 42>   H   3.40592714860256     -3.38099880595279      0.00006084796734
| 43>   H   -3.32874432396662     -3.42840544994019     -0.00026138694326
| 44>   H   -4.58380467774224     -1.32989113444890     -0.00036599782084
| 45>   H   -4.65611295060898      1.14148914368134     -0.00043697075864
| 46>   H   1.19941226127863      4.67287271493635     -0.00030009286005
| 47>   H   3.36338199069149      3.46449630946482     -0.00016807868239
| 48> *
| 49>
| 50>                          ****END OF INPUT****
 Total Charge           Charge          ....    0
 Multiplicity           Mult            ....    1
 Number of Electrons    NEL             ....  150
FINAL SINGLE POINT ENERGY      -917.748655374124
FINAL SINGLE POINT ENERGY      -917.757449401621
FINAL SINGLE POINT ENERGY      -917.761777788817
FINAL SINGLE POINT ENERGY      -917.762143710484
FINAL SINGLE POINT ENERGY      -917.762191739509
FINAL SINGLE POINT ENERGY      -917.762207272263
FINAL SINGLE POINT ENERGY      -917.762212652304
FINAL SINGLE POINT ENERGY      -917.762216443841
FINAL SINGLE POINT ENERGY      -917.762220726648
FINAL SINGLE POINT ENERGY      -917.762225224510
FINAL SINGLE POINT ENERGY      -917.762228597676
                    ***********************HURRAY********************

CARTESIAN COORDINATES (ANGSTROEM)
---------------------------------
  C      2.505846   -2.832516    0.000032
  C      1.320136   -3.452428   -0.000017
  C      0.048260   -2.936844   -0.000119
  C     -1.237301   -3.437367   -0.000188
  C     -2.423982   -2.848082   -0.000265
  C     -2.451219   -1.420985   -0.000281
  C     -3.683099   -0.734917   -0.000340
  C     -3.717703    0.626633   -0.000365
  C     -2.512838    1.347947   -0.000336
  C     -2.335096    2.741046   -0.000363
  C     -1.289749    3.370471   -0.000345
  C      0.021760    2.867671   -0.000287
  C      1.225186    3.586705   -0.000269
  C      2.416021    2.918627   -0.000208
  C      2.436961    1.516184   -0.000164
  C      3.557915    0.672377   -0.000088
  C      3.593604   -0.546571   -0.000031
  C      2.499879   -1.424699   -0.000040
  C      1.256363   -0.718051   -0.000130
  C      1.230676    0.731431   -0.000184
  C     -0.004447    1.429814   -0.000249
  C     -1.238390    0.689340   -0.000271
  C     -1.219178   -0.737639   -0.000238
  C      0.030209   -1.455649   -0.000160
  H      3.448023   -3.367324    0.000120
  H     -3.354786   -3.404960   -0.000321
  H     -4.597459   -1.314791   -0.000364
  H     -4.653119    1.169174   -0.000411
  H      1.188935    4.667153   -0.000304
  H      3.356228    3.452449   -0.000192

 Multiplicity           Mult            ....    1
 Number of Electrons    NEL             ....  150
 Basis Dimension        Dim             ....  780

ORBITAL ENERGIES
----------------

  NO   OCC          E(Eh)            E(eV)
   0   2.0000     -10.619001      -288.9577
   1   2.0000     -10.601881      -288.4918
   2   2.0000     -10.599308      -288.4218
   3   2.0000     -10.597276      -288.3665
   4   2.0000     -10.596957      -288.3579
   5   2.0000     -10.596166      -288.3363
   6   2.0000     -10.590151      -288.1726
   7   2.0000     -10.588592      -288.1302
   8   2.0000     -10.587564      -288.1023
   9   2.0000     -10.586319      -288.0684
  10   2.0000     -10.584487      -288.0185
  11   2.0000     -10.581794      -287.9452
  12   2.0000     -10.579729      -287.8891
  13   2.0000     -10.572425      -287.6903
  14   2.0000     -10.568007      -287.5701
  15   2.0000     -10.567817      -287.5649
  16   2.0000     -10.566859      -287.5389
  17   2.0000     -10.566840      -287.5383
  18   2.0000     -10.566386      -287.5260
  19   2.0000     -10.565443      -287.5003
  20   2.0000     -10.562808      -287.4286
  21   2.0000     -10.560187      -287.3573
  22   2.0000     -10.558846      -287.3208
  23   2.0000     -10.557619      -287.2874
  24   2.0000      -1.042724       -28.3740
  25   2.0000      -1.005845       -27.3704
  26   2.0000      -1.004553       -27.3353
  27   2.0000      -0.954523       -25.9739
  28   2.0000      -0.953482       -25.9456
  29   2.0000      -0.928103       -25.2550
  30   2.0000      -0.902997       -24.5718
  31   2.0000      -0.882761       -24.0212
  32   2.0000      -0.860361       -23.4116
  33   2.0000      -0.853064       -23.2130
  34   2.0000      -0.830980       -22.6121
  35   2.0000      -0.824010       -22.4225
  36   2.0000      -0.749471       -20.3941
  37   2.0000      -0.741255       -20.1706
  38   2.0000      -0.733745       -19.9662
  39   2.0000      -0.719523       -19.5792
  40   2.0000      -0.710566       -19.3355
  41   2.0000      -0.666783       -18.1441
  42   2.0000      -0.639622       -17.4050
  43   2.0000      -0.625089       -17.0095
  44   2.0000      -0.614288       -16.7156
  45   2.0000      -0.604200       -16.4411
  46   2.0000      -0.595540       -16.2055
  47   2.0000      -0.562910       -15.3176
  48   2.0000      -0.554645       -15.0927
  49   2.0000      -0.549721       -14.9587
  50   2.0000      -0.542289       -14.7564
  51   2.0000      -0.531935       -14.4747
  52   2.0000      -0.522179       -14.2092
  53   2.0000      -0.518600       -14.1118
  54   2.0000      -0.506181       -13.7739
  55   2.0000      -0.499381       -13.5889
  56   2.0000      -0.488425       -13.2907
  57   2.0000      -0.486914       -13.2496
  58   2.0000      -0.477644       -12.9974
  59   2.0000      -0.467948       -12.7335
  60   2.0000      -0.458064       -12.4646
  61   2.0000      -0.436842       -11.8871
  62   2.0000      -0.427795       -11.6409
  63   2.0000      -0.425745       -11.5851
  64   2.0000      -0.424486       -11.5508
  65   2.0000      -0.405795       -11.0423
  66   2.0000      -0.358295        -9.7497
  67   2.0000      -0.348699        -9.4886
  68   2.0000      -0.344888        -9.3849
  69   2.0000      -0.338974        -9.2240
  70   2.0000      -0.330820        -9.0021
  71   2.0000      -0.328149        -8.9294
  72   2.0000      -0.275584        -7.4990
  73   2.0000      -0.270232        -7.3534
  74   2.0000      -0.244746        -6.6599
  75   0.0000      -0.111981        -3.0472
  76   0.0000      -0.059751        -1.6259
  77   0.0000      -0.051559        -1.4030
  78   0.0000      -0.050721        -1.3802
  79   0.0000      -0.048101        -1.3089

MULLIKEN ATOMIC CHARGES
-----------------------
   0 C :   -0.270605
   1 C :   -0.001671
   2 C :   -0.159349
   3 C :    0.004361
   4 C :   -0.256874
   5 C :    0.189589
   6 C :   -0.159757
   7 C :   -0.218561
   8 C :    0.098149
   9 C :   -0.065128
  10 C :   -0.069439
  11 C :    0.080116
  12 C :   -0.199262
  13 C :   -0.201788
  14 C :    0.105536
  15 C :   -0.055377
  16 C :   -0.069060
  17 C :    0.137981
  18 C :   -0.033824
  19 C :    0.005494
  20 C :    0.034807
  21 C :   -0.014515
  22 C :   -0.006434
  23 C :    0.215187
  24 H :    0.159328
  25 H :    0.152312
  26 H :    0.143550
  27 H :    0.152251
  28 H :    0.150988
  29 H :    0.151994
Sum of atomic charges:   -0.0000000

LOEWDIN ATOMIC CHARGES
----------------------
   0 C :   -0.121343
   1 C :    0.036788
   2 C :   -0.133235
   3 C :    0.056650
   4 C :   -0.120707
   5 C :   -0.084769
   6 C :   -0.092070
   7 C :   -0.091026
   8 C :   -0.094124
   9 C :    0.018823
  10 C :    0.017794
  11 C :   -0.092161
  12 C :   -0.092245
  13 C :   -0.090160
  14 C :   -0.094802
  15 C :    0.026093
  16 C :    0.017283
  17 C :   -0.090397
  18 C :    0.005592
  19 C :    0.014318
  20 C :    0.007492
  21 C :    0.013001
  22 C :   -0.009584
  23 C :    0.044622
  24 H :    0.162730
  25 H :    0.162288
  26 H :    0.154218
  27 H :    0.156128
  28 H :    0.156198
  29 H :    0.156603

  Mayer bond orders larger than 0.100000
B(  0-C ,  1-C ) :   1.6011 B(  0-C , 17-C ) :   1.1584 B(  0-C , 24-H ) :   0.9598
B(  1-C ,  2-C ) :   1.3830 B(  1-C ,  3-C ) :   0.5109 B(  1-C , 18-C ) :   0.1060
B(  2-C ,  3-C ) :   1.3439 B(  2-C , 23-C ) :   1.0455 B(  3-C ,  4-C ) :   1.7018
B(  3-C , 22-C ) :   0.1010 B(  4-C ,  5-C ) :   1.0589 B(  4-C , 25-H ) :   0.9410
B(  5-C ,  6-C ) :   1.2577 B(  5-C , 22-C ) :   1.2847 B(  6-C ,  7-C ) :   1.5754
B(  6-C , 26-H ) :   0.9335 B(  7-C ,  8-C ) :   1.2865 B(  7-C , 27-H ) :   0.9444
B(  8-C ,  9-C ) :   1.1530 B(  8-C , 21-C ) :   1.2908 B(  9-C , 10-C ) :   2.5516
B( 10-C , 11-C ) :   1.1514 B( 11-C , 12-C ) :   1.2967 B( 11-C , 20-C ) :   1.2748
B( 12-C , 13-C ) :   1.5283 B( 12-C , 28-H ) :   0.9525 B( 13-C , 14-C ) :   1.2957
B( 13-C , 29-H ) :   0.9502 B( 14-C , 15-C ) :   1.1441 B( 14-C , 19-C ) :   1.2768
B( 15-C , 16-C ) :   2.5515 B( 16-C , 17-C ) :   1.1656 B( 17-C , 18-C ) :   1.2587
B( 18-C , 19-C ) :   1.2129 B( 18-C , 23-C ) :   1.1983 B( 19-C , 20-C ) :   1.1636
B( 20-C , 21-C ) :   1.2283 B( 21-C , 22-C ) :   1.1571 B( 22-C , 23-C ) :   1.2012

FINAL SINGLE POINT ENERGY      -917.762229990612

DIPOLE MOMENT
-------------
                                X             Y             Z
Electronic contribution:      3.72157      -0.68880       0.00018
Nuclear contribution   :     -4.24497       1.11515      -0.00023
                        -----------------------------------------
Total Dipole Moment    :     -0.52340       0.42635      -0.00004
                        -----------------------------------------
Magnitude (a.u.)       :      0.67507
Magnitude (Debye)      :      1.71588

VIBRATIONAL FREQUENCIES
-----------------------

Scaling factor for frequencies =  1.000000000  (already applied!)

   0:         0.00 cm**-1
   1:         0.00 cm**-1
   2:         0.00 cm**-1
   3:         0.00 cm**-1
   4:         0.00 cm**-1
   5:         0.00 cm**-1
   6:        42.97 cm**-1
   7:        78.24 cm**-1
   8:       128.02 cm**-1
   9:       156.43 cm**-1
  10:       214.68 cm**-1
  11:       214.82 cm**-1
  12:       278.51 cm**-1
  13:       299.02 cm**-1
  14:       324.24 cm**-1
  15:       351.01 cm**-1
  16:       354.24 cm**-1
  17:       360.54 cm**-1
  18:       392.72 cm**-1
  19:       413.44 cm**-1
  20:       424.12 cm**-1
  21:       427.37 cm**-1
  22:       450.27 cm**-1
  23:       461.13 cm**-1
  24:       471.53 cm**-1
  25:       498.13 cm**-1
  26:       501.71 cm**-1
  27:       505.15 cm**-1
  28:       534.94 cm**-1
  29:       538.30 cm**-1
  30:       545.37 cm**-1
  31:       579.84 cm**-1
  32:       591.82 cm**-1
  33:       609.49 cm**-1
  34:       657.28 cm**-1
  35:       678.61 cm**-1
  36:       683.14 cm**-1
  37:       706.88 cm**-1
  38:       738.41 cm**-1
  39:       785.94 cm**-1
  40:       804.43 cm**-1
  41:       819.79 cm**-1
  42:       825.49 cm**-1
  43:       827.54 cm**-1
  44:       850.31 cm**-1
  45:       853.11 cm**-1
  46:       858.07 cm**-1
  47:       876.51 cm**-1
  48:       889.23 cm**-1
  49:       962.54 cm**-1
  50:       988.33 cm**-1
  51:       996.15 cm**-1
  52:       997.56 cm**-1
  53:      1016.26 cm**-1
  54:      1096.74 cm**-1
  55:      1131.63 cm**-1
  56:      1148.54 cm**-1
  57:      1157.82 cm**-1
  58:      1192.06 cm**-1
  59:      1208.87 cm**-1
  60:      1218.92 cm**-1
  61:      1248.80 cm**-1
  62:      1252.21 cm**-1
  63:      1259.86 cm**-1
  64:      1312.03 cm**-1
  65:      1326.39 cm**-1
  66:      1329.68 cm**-1
  67:      1360.26 cm**-1
  68:      1374.98 cm**-1
  69:      1389.85 cm**-1
  70:      1406.97 cm**-1
  71:      1408.73 cm**-1
  72:      1461.61 cm**-1
  73:      1471.92 cm**-1
  74:      1493.45 cm**-1
  75:      1511.50 cm**-1
  76:      1550.22 cm**-1
  77:      1599.59 cm**-1
  78:      1617.78 cm**-1
  79:      1648.97 cm**-1
  80:      1661.97 cm**-1
  81:      1718.07 cm**-1
  82:      2133.42 cm**-1
  83:      2154.76 cm**-1
  84:      3191.58 cm**-1
  85:      3205.88 cm**-1
  86:      3218.59 cm**-1
  87:      3232.41 cm**-1
  88:      3241.16 cm**-1
  89:      3246.72 cm**-1

IR SPECTRUM
-----------

 Mode   freq       eps      Int      T**2         TX        TY        TZ
       cm**-1   L/(mol*cm) km/mol    a.u.
----------------------------------------------------------------------------
  6:     42.97   0.000010    0.05  0.000075  (-0.000007 -0.000068  0.008651)
  7:     78.24   0.000050    0.25  0.000199  (-0.000014  0.000022  0.014104)
  8:    128.02   0.000509    2.57  0.001241  ( 0.000032  0.000064  0.035234)
  9:    156.43   0.000043    0.22  0.000086  (-0.000029 -0.000029 -0.009277)
 10:    214.68   0.046166  233.30  0.067108  (-0.258803 -0.011356  0.000029)
 11:    214.82   0.000094    0.47  0.000136  ( 0.000994  0.000032  0.011613)
 12:    278.51   0.000072    0.37  0.000081  ( 0.000013 -0.000009 -0.008997)
 13:    299.02   0.000126    0.64  0.000131  (-0.000034  0.000001 -0.011462)
 14:    324.24   0.000084    0.42  0.000081  ( 0.000002  0.000011  0.008980)
 15:    351.01   0.000007    0.04  0.000006  ( 0.000036  0.000025  0.002524)
 16:    354.24   0.011275   56.98  0.009933  ( 0.079983  0.059461  0.000002)
 17:    360.54   0.000346    1.75  0.000300  ( 0.013340 -0.011036 -0.000000)
 18:    392.72   0.000373    1.89  0.000296  ( 0.010295 -0.013799  0.000002)
 19:    413.44   0.002047   10.34  0.001545  ( 0.033783 -0.020084  0.000004)
 20:    424.12   0.000000    0.00  0.000000  ( 0.000016  0.000043  0.000196)
 21:    427.37   0.013417   67.80  0.009797  ( 0.097777 -0.015385  0.000005)
 22:    450.27   0.000090    0.45  0.000062  (-0.000003 -0.000006 -0.007884)
 23:    461.13   0.013658   69.02  0.009243  (-0.033520 -0.090107  0.000002)
 24:    471.53   0.000020    0.10  0.000013  ( 0.000016 -0.000005 -0.003611)
 25:    498.13   0.000224    1.13  0.000140  ( 0.004271 -0.011046  0.000003)
 26:    501.71   0.004030   20.37  0.002507  (-0.035905  0.034892 -0.000002)
 27:    505.15   0.000179    0.91  0.000111  ( 0.000015  0.000006 -0.010520)
 28:    534.94   0.001284    6.49  0.000749  (-0.000007  0.000015  0.027372)
 29:    538.30   0.001799    9.09  0.001043  (-0.002818 -0.032173  0.000005)
 30:    545.37   0.011257   56.89  0.006441  (-0.079827 -0.008292 -0.000002)
 31:    579.84   0.000550    2.78  0.000296  ( 0.000001 -0.000010  0.017208)
 32:    591.82   0.001761    8.90  0.000928  (-0.009917  0.028810 -0.000004)
 33:    609.49   0.000111    0.56  0.000057  (-0.000004 -0.000017 -0.007526)
 34:    657.28   0.000746    3.77  0.000354  ( 0.000010  0.000008  0.018820)
 35:    678.61   0.000559    2.82  0.000257  ( 0.000025  0.000006  0.016032)
 36:    683.14   0.002292   11.58  0.001047  (-0.025515  0.019899 -0.000002)
 37:    706.88   0.000123    0.62  0.000054  (-0.007088 -0.002036 -0.000000)
 38:    738.41   0.001200    6.06  0.000507  (-0.010559 -0.019889  0.000001)
 39:    785.94   0.000054    0.27  0.000022  ( 0.000000 -0.000038 -0.004648)
 40:    804.43   0.000380    1.92  0.000147  ( 0.000001 -0.000015  0.012137)
 41:    819.79   0.001871    9.46  0.000712  (-0.016350  0.021092 -0.000007)
 42:    825.49   0.000274    1.38  0.000103  ( 0.000012 -0.000015 -0.010173)
 43:    827.54   0.001415    7.15  0.000534  ( 0.022439  0.005499  0.000007)
 44:    850.31   0.004200   21.22  0.001541  (-0.038897 -0.005320 -0.000010)
 45:    853.11   0.003749   18.94  0.001371  ( 0.000013  0.000012  0.037031)
 46:    858.07   0.006342   32.05  0.002306  ( 0.000005  0.000034  0.048024)
 47:    876.51   0.004451   22.50  0.001585  (-0.000030 -0.000016 -0.039810)
 48:    889.23   0.001416    7.16  0.000497  ( 0.000046  0.000007 -0.022291)
 49:    962.54   0.000263    1.33  0.000085  ( 0.001680  0.009084 -0.000002)
 50:    988.33   0.001471    7.43  0.000464  (-0.021515 -0.001206 -0.000006)
 51:    996.15   0.000007    0.04  0.000002  ( 0.000023  0.000009 -0.001477)
 52:    997.56   0.000024    0.12  0.000007  (-0.000032 -0.000013  0.002726)
 53:   1016.26   0.002058   10.40  0.000632  (-0.009647 -0.023213 -0.000001)
 54:   1096.74   0.000230    1.16  0.000066  ( 0.006139  0.005280 -0.000000)
 55:   1131.63   0.002275   11.49  0.000627  ( 0.007073 -0.024025  0.000002)
 56:   1148.54   0.000850    4.30  0.000231  ( 0.007041  0.013468 -0.000000)
 57:   1157.82   0.001556    7.86  0.000419  ( 0.009184  0.018301 -0.000000)
 58:   1192.06   0.001219    6.16  0.000319  (-0.009735 -0.014976  0.000000)
 59:   1208.87   0.001644    8.31  0.000424  ( 0.014825 -0.014305 -0.000000)
 60:   1218.92   0.000981    4.96  0.000251  (-0.005897  0.014714 -0.000000)
 61:   1248.80   0.000418    2.11  0.000105  (-0.008028  0.006330 -0.000000)
 62:   1252.21   0.000957    4.84  0.000239  ( 0.008510 -0.012892  0.000001)
 63:   1259.86   0.008024   40.55  0.001988  ( 0.044539  0.001950  0.000003)
 64:   1312.03   0.000063    0.32  0.000015  (-0.002091  0.003257  0.000000)
 65:   1326.39   0.002874   14.52  0.000676  ( 0.025549  0.004843  0.000002)
 66:   1329.68   0.000398    2.01  0.000093  (-0.007383 -0.006239 -0.000001)
 67:   1360.26   0.000998    5.04  0.000229  (-0.006261  0.013775  0.000000)
 68:   1374.98   0.003222   16.28  0.000731  ( 0.026968  0.001988  0.000001)
 69:   1389.85   0.001093    5.52  0.000245  (-0.015056 -0.004321 -0.000000)
 70:   1406.97   0.000616    3.11  0.000137  (-0.010197  0.005708 -0.000001)
 71:   1408.73   0.002515   12.71  0.000557  (-0.019979 -0.012568 -0.000001)
 72:   1461.61   0.000331    1.67  0.000071  ( 0.006384  0.005473 -0.000001)
 73:   1471.92   0.000893    4.51  0.000189  (-0.003797 -0.013223  0.000000)
 74:   1493.45   0.006249   31.58  0.001306  (-0.035243  0.007988 -0.000002)
 75:   1511.50   0.019240   97.23  0.003972  ( 0.045439  0.043677 -0.000000)
 76:   1550.22   0.003298   16.67  0.000664  ( 0.020699 -0.015344  0.000002)
 77:   1599.59   0.005892   29.78  0.001150  ( 0.005612 -0.033437  0.000001)
 78:   1617.78   0.005768   29.15  0.001113  ( 0.032356 -0.008112  0.000001)
 79:   1648.97   0.008375   42.32  0.001585  (-0.037863 -0.012299 -0.000001)
 80:   1661.97   0.000511    2.58  0.000096  (-0.000599  0.009773 -0.000000)
 81:   1718.07   0.001693    8.55  0.000307  ( 0.005856 -0.016527  0.000001)
 82:   2133.42   0.000352    1.78  0.000051  ( 0.006738 -0.002462  0.000001)
 83:   2154.76   0.001192    6.02  0.000173  (-0.003976  0.012521 -0.000000)
 84:   3191.58   0.000344    1.74  0.000034  ( 0.005328 -0.002290  0.000001)
 85:   3205.88   0.000463    2.34  0.000045  ( 0.004190  0.005245  0.000000)
 86:   3218.59   0.000430    2.18  0.000042  ( 0.006431  0.000620  0.000000)
 87:   3232.41   0.000002    0.01  0.000000  (-0.000421 -0.000238  0.000000)
 88:   3241.16   0.000466    2.35  0.000045  ( 0.006611  0.001060  0.000000)
 89:   3246.72   0.000104    0.52  0.000010  (-0.001790 -0.002603 -0.000000)

--------------------------
THERMOCHEMISTRY AT 10000.00K
--------------------------

Temperature         ... 10000.00 K
Pressure            ... 1.00 atm
Total Mass          ... 294.31 AMU

Throughout the following assumptions are being made:
  (1) The electronic state is orbitally nondegenerate
  (2) There are no thermally accessible electronically excited states
  (3) Hindered rotations indicated by low frequency modes are not
      treated as such but are treated as vibrations and this may
      cause some error
  (4) All equations used are the standard statistical mechanics
      equations for an ideal gas
  (5) All vibrations are strictly harmonic

freq.      42.97  E(vib)   ...      19.81
freq.      78.24  E(vib)   ...      19.76
freq.     128.02  E(vib)   ...      19.69
freq.     156.43  E(vib)   ...      19.65
freq.     214.68  E(vib)   ...      19.57
freq.     214.82  E(vib)   ...      19.57
freq.     278.51  E(vib)   ...      19.48
freq.     299.02  E(vib)   ...      19.45
freq.     324.24  E(vib)   ...      19.41
freq.     351.01  E(vib)   ...      19.37
freq.     354.24  E(vib)   ...      19.37
freq.     360.54  E(vib)   ...      19.36
freq.     392.72  E(vib)   ...      19.32
freq.     413.44  E(vib)   ...      19.29
freq.     424.12  E(vib)   ...      19.27
freq.     427.37  E(vib)   ...      19.27
freq.     450.27  E(vib)   ...      19.24
freq.     461.13  E(vib)   ...      19.22
freq.     471.53  E(vib)   ...      19.21
freq.     498.13  E(vib)   ...      19.17
freq.     501.71  E(vib)   ...      19.16
freq.     505.15  E(vib)   ...      19.16
freq.     534.94  E(vib)   ...      19.12
freq.     538.30  E(vib)   ...      19.11
freq.     545.37  E(vib)   ...      19.10
freq.     579.84  E(vib)   ...      19.06
freq.     591.82  E(vib)   ...      19.04
freq.     609.49  E(vib)   ...      19.01
freq.     657.28  E(vib)   ...      18.95
freq.     678.61  E(vib)   ...      18.92
freq.     683.14  E(vib)   ...      18.91
freq.     706.88  E(vib)   ...      18.88
freq.     738.41  E(vib)   ...      18.84
freq.     785.94  E(vib)   ...      18.77
freq.     804.43  E(vib)   ...      18.74
freq.     819.79  E(vib)   ...      18.72
freq.     825.49  E(vib)   ...      18.72
freq.     827.54  E(vib)   ...      18.71
freq.     850.31  E(vib)   ...      18.68
freq.     853.11  E(vib)   ...      18.68
freq.     858.07  E(vib)   ...      18.67
freq.     876.51  E(vib)   ...      18.65
freq.     889.23  E(vib)   ...      18.63
freq.     962.54  E(vib)   ...      18.53
freq.     988.33  E(vib)   ...      18.49
freq.     996.15  E(vib)   ...      18.48
freq.     997.56  E(vib)   ...      18.48
freq.    1016.26  E(vib)   ...      18.46
freq.    1096.74  E(vib)   ...      18.35
freq.    1131.63  E(vib)   ...      18.30
freq.    1148.54  E(vib)   ...      18.28
freq.    1157.82  E(vib)   ...      18.26
freq.    1192.06  E(vib)   ...      18.22
freq.    1208.87  E(vib)   ...      18.19
freq.    1218.92  E(vib)   ...      18.18
freq.    1248.80  E(vib)   ...      18.14
freq.    1252.21  E(vib)   ...      18.14
freq.    1259.86  E(vib)   ...      18.13
freq.    1312.03  E(vib)   ...      18.06
freq.    1326.39  E(vib)   ...      18.04
freq.    1329.68  E(vib)   ...      18.03
freq.    1360.26  E(vib)   ...      17.99
freq.    1374.98  E(vib)   ...      17.97
freq.    1389.85  E(vib)   ...      17.95
freq.    1406.97  E(vib)   ...      17.93
freq.    1408.73  E(vib)   ...      17.93
freq.    1461.61  E(vib)   ...      17.86
freq.    1471.92  E(vib)   ...      17.84
freq.    1493.45  E(vib)   ...      17.81
freq.    1511.50  E(vib)   ...      17.79
freq.    1550.22  E(vib)   ...      17.74
freq.    1599.59  E(vib)   ...      17.67
freq.    1617.78  E(vib)   ...      17.65
freq.    1648.97  E(vib)   ...      17.61
freq.    1661.97  E(vib)   ...      17.59
freq.    1718.07  E(vib)   ...      17.52
freq.    2133.42  E(vib)   ...      16.98
freq.    2154.76  E(vib)   ...      16.95
freq.    3191.58  E(vib)   ...      15.66
freq.    3205.88  E(vib)   ...      15.64
freq.    3218.59  E(vib)   ...      15.63
freq.    3232.41  E(vib)   ...      15.61
freq.    3241.16  E(vib)   ...      15.60
freq.    3246.72  E(vib)   ...      15.59

------------
INNER ENERGY
------------

The inner energy is: U= E(el) + E(ZPE) + E(vib) + E(rot) + E(trans)
    E(el)   - is the total energy from the electronic structure calculation
              = E(kin-el) + E(nuc-el) + E(el-el) + E(nuc-nuc)
    E(ZPE)  - the the zero temperature vibrational energy from the frequency calculation
    E(vib)  - the the finite temperature correction to E(ZPE) due to population
              of excited vibrational states
    E(rot)  - is the rotational thermal energy
    E(trans)- is the translational thermal energy

Summary of contributions to the inner energy U:
Electronic energy                ...   -917.76222999 Eh
Zero point energy                ...      0.20445993 Eh     128.30 kcal/mol
Thermal vibrational correction   ...      2.46361575 Eh    1545.94 kcal/mol
Thermal rotational correction    ...      0.04750198 Eh      29.81 kcal/mol
Thermal translational correction ...      0.04750198 Eh      29.81 kcal/mol
-----------------------------------------------------------------------
Total thermal energy                   -914.99915035 Eh

Summary of corrections to the electronic energy:
(perhaps to be used in another calculation)
Total thermal correction                  2.55861971 Eh    1605.55 kcal/mol
Non-thermal (ZPE) correction              0.20445993 Eh     128.30 kcal/mol
-----------------------------------------------------------------------
Total correction                          2.76307964 Eh    1733.85 kcal/mol

--------
ENTHALPY
--------

The enthalpy is H = U + kB*T
                kB is Boltzmann's constant
Total free energy                 ...   -914.99915035 Eh
Thermal Enthalpy correction       ...      0.03166893 Eh      19.87 kcal/mol
-----------------------------------------------------------------------
Total Enthalpy                    ...   -914.96748143 Eh

Note: Only C1 symmetry has been detected, increase convergence thresholds
      if your molecule has a higher symmetry. Symmetry factor of 1.0 is
      used for the rotational entropy correction.

Note: Rotational entropy computed according to Herzberg
Infrared and Raman Spectra, Chapter V,1, Van Nostrand Reinhold, 1945
Point Group:  C1, Symmetry Number:   1
Rotational constants in cm-1:     0.012072     0.011517     0.005894

Vibrational entropy computed according to the QRRHO of S. Grimme
Chem.Eur.J. 2012 18 9955

-------
ENTROPY

                             ****ORCA TERMINATED NORMALLY****
TOTAL RUN TIME: 0 days 4 hours 58 minutes 55 seconds 623 msec
