                         Program Version 5.0.4 -  RELEASE  -
|  1> !M062X def2-tzvp PAL4 TIGHTOPT FREQ
|  2>
|  3> %freq
|  4> Temp 298.15,10,20,50,100,6000,8000,10000
|  5> end
|  6>
|  7> %geom
|  8> maxiter 5000
|  9> end
| 10>
| 11> * xyz 0 1
| 12>   C   2.45791983499341     -2.80268931379768     -0.00000793519644
| 13>   C   1.28608761308438     -3.49706883370209     -0.00003643606214
| 14>   C   0.03470547919465     -2.82650100714450     -0.00011895547508
| 15>   C   -1.19909611030651     -3.52926406052669     -0.00014738304165
| 16>   C   -2.38727532547159     -2.86387815648029     -0.00022974228995
| 17>   C   -2.43307513493588     -1.44447575303296     -0.00027036473986
| 18>   C   -3.65942351028343     -0.73056692575933     -0.00034869983218
| 19>   C   -3.68143184744779      0.63183680863156     -0.00038756598292
| 20>   C   -2.47654311552349      1.38171086633990     -0.00035715694906
| 21>   C   -2.47435650264592      2.81046534061019     -0.00039831731937
| 22>   C   -1.28561443050281      3.43802142880253     -0.00036151343355
| 23>   C   -0.02057223287027      2.83388218261706     -0.00029010794623
| 24>   C   1.21086686736911      3.53893902602452     -0.00025402239824
| 25>   C   2.39489324957599      2.86551829309080     -0.00018393811888
| 26>   C   2.43517090494280      1.44582754720977     -0.00014049013964
| 27>   C   3.65975900430544      0.72697243056351     -0.00006992784603
| 28>   C   3.67546036802878     -0.63516446298208     -0.00002698908555
| 29>   C   2.46811813995863     -1.38295180399054     -0.00005240219282
| 30>   C   1.24061543792698     -0.69496199420878     -0.00012711748511
| 31>   C   1.22474219035332      0.72698621586077     -0.00017741356338
| 32>   C   -0.01566516709535      1.42103164152461     -0.00024506128700
| 33>   C   -1.24356348643455      0.69923344199718     -0.00028346088976
| 34>   C   -1.22400277498297     -0.72338676000015     -0.00023734960533
| 35>   C   0.01693487392421     -1.41913103104816     -0.00016297130775
| 36>   H   3.40501735040542     -3.32906588787472      0.00005627444163
| 37>   H   1.29296308352502     -4.58060438188898      0.00000142672494
| 38>   H   -1.17896310310274     -4.61257131284734     -0.00011513591155
| 39>   H   -3.32129405982821     -3.41317602901623     -0.00025227227744
| 40>   H   -4.62408845924854      1.16575491725399     -0.00044556872067
| 41>   H   -3.41518424261775      3.34878172120577     -0.00045725814046
| 42>   H   1.18854626437870      4.62103847897618     -0.00028959104089
| 43>   H   3.33130215861300      3.41052642430950     -0.00015763965944
| 44>   H   4.58800492413600      1.28586263822177     -0.00004835142171
| 45>   H   4.61660270482137     -1.17213723898180      0.00002811587814
| 46>   **                         ****END OF INPUT****
 Total Charge           Charge          ....    0
 Multiplicity           Mult            ....    1
 Number of Electrons    NEL             ....  154
FINAL SINGLE POINT ENERGY      -920.396177126728
FINAL SINGLE POINT ENERGY      -920.402832677171
FINAL SINGLE POINT ENERGY      -920.407150330744
FINAL SINGLE POINT ENERGY      -920.407394948738
FINAL SINGLE POINT ENERGY      -920.407490491427
FINAL SINGLE POINT ENERGY      -920.407524044155
FINAL SINGLE POINT ENERGY      -920.407534902309
FINAL SINGLE POINT ENERGY      -920.407538679512
FINAL SINGLE POINT ENERGY      -920.407541418067
FINAL SINGLE POINT ENERGY      -920.407542710978
FINAL SINGLE POINT ENERGY      -920.407542987156
                    ***********************HURRAY********************

CARTESIAN COORDINATES (ANGSTROEM)
---------------------------------
  C      2.464941   -2.811473   -0.000009
  C      1.291592   -3.504774   -0.000044
  C      0.039277   -2.833689   -0.000116
  C     -1.199831   -3.528866   -0.000144
  C     -2.390222   -2.864780   -0.000222
  C     -2.425380   -1.444444   -0.000265
  C     -3.569293   -0.646011   -0.000342
  C     -3.727988    0.662657   -0.000393
  C     -2.457909    1.378037   -0.000356
  C     -2.508200    2.835297   -0.000407
  C     -1.308457    3.381097   -0.000367
  C     -0.031182    2.820947   -0.000288
  C      1.198961    3.531412   -0.000249
  C      2.386854    2.863110   -0.000178
  C      2.439054    1.443228   -0.000138
  C      3.665532    0.725751   -0.000069
  C      3.685408   -0.637033   -0.000030
  C      2.480733   -1.390799   -0.000056
  C      1.255016   -0.704218   -0.000128
  C      1.233982    0.717636   -0.000173
  C     -0.006786    1.405611   -0.000246
  C     -1.235674    0.692660   -0.000279
  C     -1.204340   -0.728000   -0.000232
  C      0.030424   -1.427092   -0.000160
  H      3.410264   -3.341085    0.000046
  H      1.298582   -4.588188   -0.000005
  H     -1.184586   -4.612123   -0.000111
  H     -3.327449   -3.404807   -0.000243
  H     -4.645118    1.242873   -0.000455
  H     -3.480610    3.317056   -0.000480
  H      1.169601    4.612657   -0.000282
  H      3.318758    3.415578   -0.000151
  H      4.592662    1.286348   -0.000046
  H      4.628943   -1.169780    0.000024

 Multiplicity           Mult            ....    1
 Number of Electrons    NEL             ....  154
 Basis Dimension        Dim             ....  804

ORBITAL ENERGIES
----------------

  NO   OCC          E(Eh)            E(eV)
   0   2.0000     -10.589870      -288.1650
   1   2.0000     -10.571286      -287.6593
   2   2.0000     -10.571260      -287.6586
   3   2.0000     -10.570728      -287.6441
   4   2.0000     -10.570710      -287.6436
   5   2.0000     -10.570136      -287.6280
   6   2.0000     -10.570122      -287.6276
   7   2.0000     -10.567582      -287.5585
   8   2.0000     -10.567564      -287.5580
   9   2.0000     -10.564863      -287.4845
  10   2.0000     -10.564759      -287.4817
  11   2.0000     -10.564657      -287.4789
  12   2.0000     -10.564430      -287.4728
  13   2.0000     -10.563867      -287.4574
  14   2.0000     -10.563662      -287.4519
  15   2.0000     -10.562594      -287.4228
  16   2.0000     -10.556664      -287.2614
  17   2.0000     -10.556602      -287.2598
  18   2.0000     -10.555778      -287.2373
  19   2.0000     -10.555685      -287.2348
  20   2.0000     -10.554551      -287.2039
  21   2.0000     -10.554445      -287.2011
  22   2.0000     -10.554253      -287.1958
  23   2.0000     -10.554215      -287.1948
  24   2.0000      -1.031501       -28.0686
  25   2.0000      -0.992210       -26.9994
  26   2.0000      -0.990021       -26.9398
  27   2.0000      -0.939556       -25.5666
  28   2.0000      -0.938291       -25.5322
  29   2.0000      -0.919184       -25.0123
  30   2.0000      -0.887293       -24.1445
  31   2.0000      -0.869407       -23.6578
  32   2.0000      -0.850691       -23.1485
  33   2.0000      -0.850556       -23.1448
  34   2.0000      -0.820107       -22.3163
  35   2.0000      -0.810874       -22.0650
  36   2.0000      -0.735716       -20.0199
  37   2.0000      -0.733127       -19.9494
  38   2.0000      -0.725938       -19.7538
  39   2.0000      -0.719960       -19.5911
  40   2.0000      -0.709962       -19.3190
  41   2.0000      -0.650134       -17.6910
  42   2.0000      -0.641958       -17.4686
  43   2.0000      -0.627582       -17.0774
  44   2.0000      -0.626093       -17.0368
  45   2.0000      -0.600979       -16.3535
  46   2.0000      -0.595776       -16.2119
  47   2.0000      -0.557060       -15.1584
  48   2.0000      -0.551130       -14.9970
  49   2.0000      -0.548166       -14.9164
  50   2.0000      -0.535386       -14.5686
  51   2.0000      -0.520392       -14.1606
  52   2.0000      -0.519786       -14.1441
  53   2.0000      -0.516721       -14.0607
  54   2.0000      -0.503679       -13.7058
  55   2.0000      -0.503653       -13.7051
  56   2.0000      -0.487085       -13.2543
  57   2.0000      -0.480411       -13.0726
  58   2.0000      -0.477272       -12.9872
  59   2.0000      -0.472583       -12.8596
  60   2.0000      -0.471351       -12.8261
  61   2.0000      -0.466975       -12.7070
  62   2.0000      -0.441915       -12.0251
  63   2.0000      -0.436264       -11.8713
  64   2.0000      -0.432422       -11.7668
  65   2.0000      -0.410620       -11.1735
  66   2.0000      -0.409068       -11.1313
  67   2.0000      -0.394849       -10.7444
  68   2.0000      -0.390979       -10.6391
  69   2.0000      -0.390163       -10.6169
  70   2.0000      -0.342359        -9.3161
  71   2.0000      -0.332961        -9.0603
  72   2.0000      -0.318448        -8.6654
  73   2.0000      -0.317460        -8.6385
  74   2.0000      -0.262466        -7.1421
  75   2.0000      -0.258888        -7.0447
  76   2.0000      -0.219000        -5.9593
  77   0.0000      -0.118541        -3.2257
  78   0.0000      -0.044621        -1.2142
  79   0.0000      -0.040809        -1.1105
  80   0.0000      -0.002745        -0.0747
  81   0.0000       0.001639         0.0446

MULLIKEN ATOMIC CHARGES
-----------------------
   0 C :   -0.186329
   1 C :   -0.176847
   2 C :    0.079168
   3 C :   -0.166832
   4 C :   -0.230842
   5 C :    0.071314
   6 C :    0.014392
   7 C :   -0.315723
   8 C :    0.243658
   9 C :   -0.321377
  10 C :    0.016695
  11 C :    0.065555
  12 C :   -0.227581
  13 C :   -0.173160
  14 C :    0.084503
  15 C :   -0.176479
  16 C :   -0.174961
  17 C :    0.083614
  18 C :    0.015979
  19 C :    0.027061
  20 C :    0.064361
  21 C :   -0.110999
  22 C :    0.060536
  23 C :    0.030871
  24 H :    0.135616
  25 H :    0.135546
  26 H :    0.135631
  27 H :    0.143643
  28 H :    0.150682
  29 H :    0.151017
  30 H :    0.143251
  31 H :    0.136109
  32 H :    0.135790
  33 H :    0.136138
Sum of atomic charges:   -0.0000000

LOEWDIN ATOMIC CHARGES
----------------------
   0 C :   -0.095890
   1 C :   -0.097495
   2 C :   -0.090459
   3 C :   -0.097630
   4 C :   -0.090261
   5 C :   -0.114325
   6 C :    0.040189
   7 C :   -0.134672
   8 C :   -0.042103
   9 C :   -0.134548
  10 C :    0.040429
  11 C :   -0.114357
  12 C :   -0.090290
  13 C :   -0.097641
  14 C :   -0.090305
  15 C :   -0.097440
  16 C :   -0.095731
  17 C :   -0.093727
  18 C :   -0.003634
  19 C :   -0.005566
  20 C :    0.003573
  21 C :   -0.017983
  22 C :    0.003691
  23 C :   -0.005556
  24 H :    0.150821
  25 H :    0.150799
  26 H :    0.151315
  27 H :    0.153086
  28 H :    0.154857
  29 H :    0.154839
  30 H :    0.153061
  31 H :    0.151339
  32 H :    0.150823
  33 H :    0.150793

  Mayer bond orders larger than 0.100000
B(  0-C ,  1-C ) :   1.6369 B(  0-C , 17-C ) :   1.2369 B(  0-C , 24-H ) :   0.9354
B(  1-C ,  2-C ) :   1.2438 B(  1-C , 25-H ) :   0.9316 B(  2-C ,  3-C ) :   1.2389
B(  2-C , 23-C ) :   1.3104 B(  3-C ,  4-C ) :   1.6050 B(  3-C , 26-H ) :   0.9362
B(  4-C ,  5-C ) :   1.2380 B(  4-C , 27-H ) :   0.9528 B(  5-C ,  6-C ) :   1.1858
B(  5-C , 22-C ) :   1.3049 B(  6-C ,  7-C ) :   1.8864 B(  6-C , 10-C ) :   0.5297
B(  7-C ,  8-C ) :   0.9909 B(  7-C , 28-H ) :   0.9251 B(  8-C ,  9-C ) :   0.9861
B(  8-C , 21-C ) :   1.4034 B(  9-C , 10-C ) :   1.8865 B(  9-C , 29-H ) :   0.9268
B( 10-C , 11-C ) :   1.1872 B( 11-C , 12-C ) :   1.2402 B( 11-C , 20-C ) :   1.3059
B( 12-C , 13-C ) :   1.6065 B( 12-C , 30-H ) :   0.9512 B( 13-C , 14-C ) :   1.2354
B( 13-C , 31-H ) :   0.9385 B( 14-C , 15-C ) :   1.2450 B( 14-C , 19-C ) :   1.3102
B( 15-C , 16-C ) :   1.6390 B( 15-C , 32-H ) :   0.9294 B( 16-C , 17-C ) :   1.2463
B( 16-C , 33-H ) :   0.9280 B( 17-C , 18-C ) :   1.3136 B( 18-C , 19-C ) :   1.1573
B( 18-C , 23-C ) :   1.1441 B( 19-C , 20-C ) :   1.1417 B( 20-C , 21-C ) :   1.1694
B( 21-C , 22-C ) :   1.1793 B( 22-C , 23-C ) :   1.1451

FINAL SINGLE POINT ENERGY      -920.407543012586

DIPOLE MOMENT
-------------
                                X             Y             Z
Electronic contribution:     -4.47697       2.51247      -0.00026
Nuclear contribution   :      5.20017      -2.91425       0.00030
                        -----------------------------------------
Total Dipole Moment    :      0.72320      -0.40178       0.00005
                        -----------------------------------------
Magnitude (a.u.)       :      0.82731
Magnitude (Debye)      :      2.10286

VIBRATIONAL FREQUENCIES
-----------------------

Scaling factor for frequencies =  1.000000000  (already applied!)

   0:         0.00 cm**-1
   1:         0.00 cm**-1
   2:         0.00 cm**-1
   3:         0.00 cm**-1
   4:         0.00 cm**-1
   5:         0.00 cm**-1
   6:        80.82 cm**-1
   7:        89.48 cm**-1
   8:       116.82 cm**-1
   9:       161.83 cm**-1
  10:       218.82 cm**-1
  11:       274.05 cm**-1
  12:       289.24 cm**-1
  13:       301.67 cm**-1
  14:       322.32 cm**-1
  15:       333.39 cm**-1
  16:       365.16 cm**-1
  17:       375.24 cm**-1
  18:       390.52 cm**-1
  19:       430.65 cm**-1
  20:       438.80 cm**-1
  21:       443.44 cm**-1
  22:       477.60 cm**-1
  23:       487.31 cm**-1
  24:       494.21 cm**-1
  25:       500.82 cm**-1
  26:       502.39 cm**-1
  27:       546.47 cm**-1
  28:       570.73 cm**-1
  29:       577.12 cm**-1
  30:       583.38 cm**-1
  31:       630.21 cm**-1
  32:       650.02 cm**-1
  33:       655.71 cm**-1
  34:       681.39 cm**-1
  35:       681.68 cm**-1
  36:       685.71 cm**-1
  37:       702.38 cm**-1
  38:       765.78 cm**-1
  39:       770.18 cm**-1
  40:       792.36 cm**-1
  41:       798.41 cm**-1
  42:       825.14 cm**-1
  43:       835.60 cm**-1
  44:       842.18 cm**-1
  45:       846.08 cm**-1
  46:       855.03 cm**-1
  47:       871.31 cm**-1
  48:       876.56 cm**-1
  49:       885.76 cm**-1
  50:       945.08 cm**-1
  51:       984.15 cm**-1
  52:       984.88 cm**-1
  53:       991.48 cm**-1
  54:       998.65 cm**-1
  55:      1001.53 cm**-1
  56:      1007.38 cm**-1
  57:      1027.96 cm**-1
  58:      1048.76 cm**-1
  59:      1140.33 cm**-1
  60:      1162.43 cm**-1
  61:      1172.36 cm**-1
  62:      1175.99 cm**-1
  63:      1195.13 cm**-1
  64:      1207.01 cm**-1
  65:      1234.14 cm**-1
  66:      1235.36 cm**-1
  67:      1249.43 cm**-1
  68:      1250.51 cm**-1
  69:      1283.32 cm**-1
  70:      1299.54 cm**-1
  71:      1330.85 cm**-1
  72:      1345.01 cm**-1
  73:      1382.12 cm**-1
  74:      1395.35 cm**-1
  75:      1423.27 cm**-1
  76:      1438.08 cm**-1
  77:      1450.11 cm**-1
  78:      1451.33 cm**-1
  79:      1463.01 cm**-1
  80:      1491.42 cm**-1
  81:      1510.98 cm**-1
  82:      1516.51 cm**-1
  83:      1542.75 cm**-1
  84:      1574.62 cm**-1
  85:      1590.80 cm**-1
  86:      1602.23 cm**-1
  87:      1664.51 cm**-1
  88:      1671.83 cm**-1
  89:      1689.28 cm**-1
  90:      1691.71 cm**-1
  91:      1713.17 cm**-1
  92:      3165.66 cm**-1
  93:      3185.95 cm**-1
  94:      3203.42 cm**-1
  95:      3204.00 cm**-1
  96:      3210.39 cm**-1
  97:      3211.02 cm**-1
  98:      3219.88 cm**-1
  99:      3220.87 cm**-1
 100:      3235.10 cm**-1
 101:      3235.86 cm**-1

IR SPECTRUM
-----------

 Mode   freq       eps      Int      T**2         TX        TY        TZ
       cm**-1   L/(mol*cm) km/mol    a.u.
----------------------------------------------------------------------------
  6:     80.82   0.000009    0.05  0.000035  (-0.000036  0.000026  0.005916)
  7:     89.48   0.000003    0.02  0.000011  ( 0.000015  0.000008 -0.003362)
  8:    116.82   0.000665    3.36  0.001777  ( 0.000020 -0.000036 -0.042157)
  9:    161.83   0.000000    0.00  0.000001  (-0.000037  0.000018  0.000849)
 10:    218.82   0.000316    1.60  0.000451  (-0.000007 -0.000031  0.021236)
 11:    274.05   0.000003    0.02  0.000004  ( 0.000002 -0.000006 -0.001876)
 12:    289.24   0.000019    0.10  0.000021  ( 0.000025 -0.000021 -0.004559)
 13:    301.67   0.000000    0.00  0.000000  (-0.000013  0.000007  0.000561)
 14:    322.32   0.000035    0.18  0.000034  (-0.000021 -0.000013 -0.005815)
 15:    333.39   0.077843  393.39  0.072863  ( 0.131995  0.235459 -0.000002)
 16:    365.16   0.000551    2.78  0.000471  ( 0.019024 -0.010435  0.000000)
 17:    375.24   0.000123    0.62  0.000102  ( 0.008788 -0.005018  0.000002)
 18:    390.52   0.000191    0.96  0.000152  (-0.006410 -0.010543  0.000002)
 19:    430.65   0.000266    1.34  0.000192  (-0.000009  0.000010  0.013871)
 20:    438.80   0.004743   23.97  0.003373  ( 0.000030  0.000007 -0.058079)
 21:    443.44   0.058460  295.43  0.041140  (-0.098585 -0.177261 -0.000005)
 22:    477.60   0.000903    4.56  0.000590  (-0.000011  0.000017  0.024286)
 23:    487.31   0.000250    1.26  0.000160  ( 0.010824 -0.006547 -0.000001)
 24:    494.21   0.000162    0.82  0.000102  ( 0.005391  0.008555  0.000001)
 25:    500.82   0.000202    1.02  0.000126  (-0.010032  0.005045  0.000000)
 26:    502.39   0.000000    0.00  0.000000  (-0.000021 -0.000004 -0.000110)
 27:    546.47   0.090470  457.20  0.051663  (-0.110939 -0.198382  0.000002)
 28:    570.73   0.000557    2.82  0.000305  (-0.015777  0.007477 -0.000002)
 29:    577.12   0.000065    0.33  0.000035  ( 0.000036  0.000002  0.005939)
 30:    583.38   0.003494   17.66  0.001869  (-0.000002  0.000006  0.043233)
 31:    630.21   0.000040    0.20  0.000020  (-0.000004 -0.000012  0.004435)
 32:    650.02   0.000054    0.28  0.000026  (-0.004683  0.002052 -0.000001)
 33:    655.71   0.000001    0.01  0.000001  (-0.000014  0.000017  0.000819)
 34:    681.39   0.003083   15.58  0.001412  (-0.014204 -0.034787 -0.000004)
 35:    681.68   0.005203   26.29  0.002382  ( 0.026550  0.040951  0.000004)
 36:    685.71   0.000404    2.04  0.000184  (-0.000007 -0.000024  0.013557)
 37:    702.38   0.043171  218.17  0.019180  (-0.067712 -0.120812  0.000001)
 38:    765.78   0.000053    0.27  0.000021  (-0.000017 -0.000002  0.004634)
 39:    770.18   0.000629    3.18  0.000255  (-0.013952  0.007767 -0.000001)
 40:    792.36   0.000000    0.00  0.000000  (-0.000011  0.000003 -0.000326)
 41:    798.41   0.000013    0.06  0.000005  (-0.000017  0.000001 -0.002232)
 42:    825.14   0.000120    0.61  0.000045  ( 0.005810 -0.003406 -0.000009)
 43:    835.60   0.003932   19.87  0.001468  ( 0.018534  0.033539 -0.000000)
 44:    842.18   0.002799   14.15  0.001037  (-0.000016 -0.000021  0.032208)
 45:    846.08   0.004294   21.70  0.001584  ( 0.000005  0.000009  0.039796)
 46:    855.03   0.001075    5.43  0.000392  ( 0.000031 -0.000003 -0.019803)
 47:    871.31   0.000021    0.11  0.000008  (-0.000042 -0.000003  0.002750)
 48:    876.56   0.027024  136.57  0.009621  ( 0.048347  0.085342 -0.000008)
 49:    885.76   0.018984   95.94  0.006688  (-0.000009  0.000034  0.081782)
 50:    945.08   0.000002    0.01  0.000001  ( 0.000066  0.000036 -0.000824)
 51:    984.15   0.000000    0.00  0.000000  (-0.000010 -0.000026  0.000094)
 52:    984.88   0.000683    3.45  0.000216  ( 0.012669 -0.007468  0.000008)
 53:    991.48   0.000001    0.01  0.000000  ( 0.000006 -0.000010  0.000606)
 54:    998.65   0.000009    0.05  0.000003  (-0.000026 -0.000015  0.001695)
 55:   1001.53   0.000033    0.17  0.000010  (-0.000004 -0.000049  0.003194)
 56:   1007.38   0.008699   43.96  0.002695  ( 0.025613  0.045151 -0.000000)
 57:   1027.96   0.000377    1.90  0.000114  (-0.005164 -0.009365  0.000000)
 58:   1048.76   0.000069    0.35  0.000021  (-0.003862  0.002367 -0.000001)
 59:   1140.33   0.019795  100.04  0.005417  ( 0.035894  0.064256 -0.000001)
 60:   1162.43   0.000045    0.23  0.000012  ( 0.003270 -0.001144  0.000001)
 61:   1172.36   0.000954    4.82  0.000254  ( 0.013616 -0.008281  0.000001)
 62:   1175.99   0.000574    2.90  0.000152  (-0.003298 -0.011895  0.000000)
 63:   1195.13   0.000540    2.73  0.000141  ( 0.010699 -0.005157  0.000001)
 64:   1207.01   0.001127    5.70  0.000291  (-0.009243 -0.014354 -0.000001)
 65:   1234.14   0.000292    1.48  0.000074  (-0.004054 -0.007583 -0.000000)
 66:   1235.36   0.000057    0.29  0.000014  (-0.003616  0.001111 -0.000000)
 67:   1249.43   0.002946   14.89  0.000736  ( 0.013287  0.023650 -0.000000)
 68:   1250.51   0.000068    0.34  0.000017  ( 0.001918 -0.003635 -0.000000)
 69:   1283.32   0.008926   45.11  0.002170  ( 0.023483  0.040236  0.000000)
 70:   1299.54   0.000360    1.82  0.000086  ( 0.007914 -0.004868  0.000001)
 71:   1330.85   0.000235    1.19  0.000055  (-0.003513 -0.006534 -0.000001)
 72:   1345.01   0.003716   18.78  0.000862  ( 0.025626 -0.014334  0.000000)
 73:   1382.12   0.000085    0.43  0.000019  ( 0.003675 -0.002367 -0.000001)
 74:   1395.35   0.003439   17.38  0.000769  ( 0.014426  0.023687  0.000000)
 75:   1423.27   0.000023    0.11  0.000005  (-0.002211  0.000283 -0.000001)
 76:   1438.08   0.007423   37.51  0.001611  ( 0.019149  0.035273 -0.000001)
 77:   1450.11   0.000125    0.63  0.000027  ( 0.002426  0.004596 -0.000000)
 78:   1451.33   0.000038    0.19  0.000008  (-0.002873  0.000011 -0.000001)
 79:   1463.01   0.000028    0.14  0.000006  (-0.002106  0.001245 -0.000000)
 80:   1491.42   0.000002    0.01  0.000000  (-0.000423  0.000505  0.000000)
 81:   1510.98   0.000216    1.09  0.000045  ( 0.003082  0.005934  0.000000)
 82:   1516.51   0.003023   15.28  0.000622  ( 0.012584  0.021536 -0.000001)
 83:   1542.75   0.000480    2.42  0.000097  ( 0.008618 -0.004767  0.000000)
 84:   1574.62   0.000326    1.65  0.000065  (-0.003554 -0.007214  0.000001)
 85:   1590.80   0.002215   11.19  0.000435  (-0.010192 -0.018184 -0.000000)
 86:   1602.23   0.001194    6.03  0.000232  ( 0.013537 -0.007014  0.000001)
 87:   1664.51   0.007746   39.14  0.001452  (-0.018767 -0.033165  0.000000)
 88:   1671.83   0.000019    0.10  0.000004  (-0.001793  0.000605 -0.000000)
 89:   1689.28   0.005943   30.03  0.001098  ( 0.015647  0.029207 -0.000001)
 90:   1691.71   0.002990   15.11  0.000552  ( 0.020588 -0.011302  0.000002)
 91:   1713.17   0.000298    1.51  0.000054  ( 0.006290 -0.003846 -0.000000)
 92:   3165.66   0.000337    1.70  0.000033  (-0.004479  0.003632 -0.000000)
 93:   3185.95   0.003929   19.86  0.000385  ( 0.009535  0.017145 -0.000000)
 94:   3203.42   0.000105    0.53  0.000010  (-0.001948 -0.002531  0.000000)
 95:   3204.00   0.000091    0.46  0.000009  ( 0.002460 -0.001690  0.000000)
 96:   3210.39   0.000409    2.07  0.000040  ( 0.002790  0.005656  0.000000)
 97:   3211.02   0.000469    2.37  0.000046  (-0.004066 -0.005387 -0.000000)
 98:   3219.88   0.001459    7.38  0.000141  ( 0.002384 -0.011652  0.000001)
 99:   3220.87   0.002799   14.15  0.000271  (-0.016175  0.003094 -0.000001)
100:   3235.10   0.001129    5.70  0.000109  ( 0.007117  0.007630  0.000000)
101:   3235.86   0.001331    6.73  0.000128  ( 0.004062  0.010577 -0.000000)

--------------------------
THERMOCHEMISTRY AT 10000.00K
--------------------------

Temperature         ... 10000.00 K
Pressure            ... 1.00 atm
Total Mass          ... 298.34 AMU

Throughout the following assumptions are being made:
  (1) The electronic state is orbitally nondegenerate
  (2) There are no thermally accessible electronically excited states
  (3) Hindered rotations indicated by low frequency modes are not
      treated as such but are treated as vibrations and this may
      cause some error
  (4) All equations used are the standard statistical mechanics
      equations for an ideal gas
  (5) All vibrations are strictly harmonic

freq.      80.82  E(vib)   ...      19.76
freq.      89.48  E(vib)   ...      19.74
freq.     116.82  E(vib)   ...      19.71
freq.     161.83  E(vib)   ...      19.64
freq.     218.82  E(vib)   ...      19.56
freq.     274.05  E(vib)   ...      19.48
freq.     289.24  E(vib)   ...      19.46
freq.     301.67  E(vib)   ...      19.44
freq.     322.32  E(vib)   ...      19.42
freq.     333.39  E(vib)   ...      19.40
freq.     365.16  E(vib)   ...      19.36
freq.     375.24  E(vib)   ...      19.34
freq.     390.52  E(vib)   ...      19.32
freq.     430.65  E(vib)   ...      19.26
freq.     438.80  E(vib)   ...      19.25
freq.     443.44  E(vib)   ...      19.25
freq.     477.60  E(vib)   ...      19.20
freq.     487.31  E(vib)   ...      19.18
freq.     494.21  E(vib)   ...      19.17
freq.     500.82  E(vib)   ...      19.17
freq.     502.39  E(vib)   ...      19.16
freq.     546.47  E(vib)   ...      19.10
freq.     570.73  E(vib)   ...      19.07
freq.     577.12  E(vib)   ...      19.06
freq.     583.38  E(vib)   ...      19.05
freq.     630.21  E(vib)   ...      18.99
freq.     650.02  E(vib)   ...      18.96
freq.     655.71  E(vib)   ...      18.95
freq.     681.39  E(vib)   ...      18.91
freq.     681.68  E(vib)   ...      18.91
freq.     685.71  E(vib)   ...      18.91
freq.     702.38  E(vib)   ...      18.89
freq.     765.78  E(vib)   ...      18.80
freq.     770.18  E(vib)   ...      18.79
freq.     792.36  E(vib)   ...      18.76
freq.     798.41  E(vib)   ...      18.75
freq.     825.14  E(vib)   ...      18.72
freq.     835.60  E(vib)   ...      18.70
freq.     842.18  E(vib)   ...      18.69
freq.     846.08  E(vib)   ...      18.69
freq.     855.03  E(vib)   ...      18.68
freq.     871.31  E(vib)   ...      18.65
freq.     876.56  E(vib)   ...      18.65
freq.     885.76  E(vib)   ...      18.63
freq.     945.08  E(vib)   ...      18.55
freq.     984.15  E(vib)   ...      18.50
freq.     984.88  E(vib)   ...      18.50
freq.     991.48  E(vib)   ...      18.49
freq.     998.65  E(vib)   ...      18.48
freq.    1001.53  E(vib)   ...      18.48
freq.    1007.38  E(vib)   ...      18.47
freq.    1027.96  E(vib)   ...      18.44
freq.    1048.76  E(vib)   ...      18.41
freq.    1140.33  E(vib)   ...      18.29
freq.    1162.43  E(vib)   ...      18.26
freq.    1172.36  E(vib)   ...      18.24
freq.    1175.99  E(vib)   ...      18.24
freq.    1195.13  E(vib)   ...      18.21
freq.    1207.01  E(vib)   ...      18.20
freq.    1234.14  E(vib)   ...      18.16
freq.    1235.36  E(vib)   ...      18.16
freq.    1249.43  E(vib)   ...      18.14
freq.    1250.51  E(vib)   ...      18.14
freq.    1283.32  E(vib)   ...      18.09
freq.    1299.54  E(vib)   ...      18.07
freq.    1330.85  E(vib)   ...      18.03
freq.    1345.01  E(vib)   ...      18.01
freq.    1382.12  E(vib)   ...      17.96
freq.    1395.35  E(vib)   ...      17.94
freq.    1423.27  E(vib)   ...      17.91
freq.    1438.08  E(vib)   ...      17.89
freq.    1450.11  E(vib)   ...      17.87
freq.    1451.33  E(vib)   ...      17.87
freq.    1463.01  E(vib)   ...      17.85
freq.    1491.42  E(vib)   ...      17.82
freq.    1510.98  E(vib)   ...      17.79
freq.    1516.51  E(vib)   ...      17.78
freq.    1542.75  E(vib)   ...      17.75
freq.    1574.62  E(vib)   ...      17.71
freq.    1590.80  E(vib)   ...      17.69
freq.    1602.23  E(vib)   ...      17.67
freq.    1664.51  E(vib)   ...      17.59
freq.    1671.83  E(vib)   ...      17.58
freq.    1689.28  E(vib)   ...      17.56
freq.    1691.71  E(vib)   ...      17.55
freq.    1713.17  E(vib)   ...      17.52
freq.    3165.66  E(vib)   ...      15.69
freq.    3185.95  E(vib)   ...      15.66
freq.    3203.42  E(vib)   ...      15.64
freq.    3204.00  E(vib)   ...      15.64
freq.    3210.39  E(vib)   ...      15.64
freq.    3211.02  E(vib)   ...      15.63
freq.    3219.88  E(vib)   ...      15.62
freq.    3220.87  E(vib)   ...      15.62
freq.    3235.10  E(vib)   ...      15.61
freq.    3235.86  E(vib)   ...      15.60

------------
INNER ENERGY
------------

The inner energy is: U= E(el) + E(ZPE) + E(vib) + E(rot) + E(trans)
    E(el)   - is the total energy from the electronic structure calculation
              = E(kin-el) + E(nuc-el) + E(el-el) + E(nuc-nuc)
    E(ZPE)  - the the zero temperature vibrational energy from the frequency calculation
    E(vib)  - the the finite temperature correction to E(ZPE) due to population
              of excited vibrational states
    E(rot)  - is the rotational thermal energy
    E(trans)- is the translational thermal energy

Summary of contributions to the inner energy U:
Electronic energy                ...   -920.40754301 Eh
Zero point energy                ...      0.25435799 Eh     159.61 kcal/mol
Thermal vibrational correction   ...      2.79644266 Eh    1754.79 kcal/mol
Thermal rotational correction    ...      0.04750198 Eh      29.81 kcal/mol
Thermal translational correction ...      0.04750198 Eh      29.81 kcal/mol
-----------------------------------------------------------------------
Total thermal energy                   -917.26173841 Eh

Summary of corrections to the electronic energy:
(perhaps to be used in another calculation)
Total thermal correction                  2.89144661 Eh    1814.41 kcal/mol
Non-thermal (ZPE) correction              0.25435799 Eh     159.61 kcal/mol
-----------------------------------------------------------------------
Total correction                          3.14580460 Eh    1974.02 kcal/mol

--------
ENTHALPY
--------

The enthalpy is H = U + kB*T
                kB is Boltzmann's constant
Total free energy                 ...   -917.26173841 Eh
Thermal Enthalpy correction       ...      0.03166893 Eh      19.87 kcal/mol
-----------------------------------------------------------------------
Total Enthalpy                    ...   -917.23006948 Eh

Note: Rotational entropy computed according to Herzberg
Infrared and Raman Spectra, Chapter V,1, Van Nostrand Reinhold, 1945
Point Group:  Cs, Symmetry Number:   1
Rotational constants in cm-1:     0.011513     0.011337     0.005712

                             ****ORCA TERMINATED NORMALLY****
TOTAL RUN TIME: 0 days 8 hours 19 minutes 23 seconds 740 msec
