                         Program Version 5.0.4 -  RELEASE  -
|  1> !M062x def2-tzvp opt freq tightscf pal4
|  2>
|  3> %freq
|  4> Temp 298.15,10,20,50,100,6000,8000,10000
|  5> end
|  6>
|  7>
|  8> %geom
|  9>  maxiter 2000
| 10> end
| 11>
| 12>
| 13>
| 14>
| 15>
| 16>
| 17>
| 18> * xyz 0 1
| 19>   C   2.46362427987247     -2.85071308273857     -0.00000218907091
| 20>   C   1.27719400513090     -3.52585311672403     -0.00003902795947
| 21>   C   0.05064934326115     -2.82613554872827     -0.00011828018749
| 22>   C   -1.19925193688694     -3.46606389677068     -0.00015928151260
| 23>   C   -2.39885271805658     -2.87183824187673     -0.00023283554738
| 24>   C   -2.43518053153382     -1.44080024452875     -0.00027277196623
| 25>   C   -3.66777674509120     -0.75191121775761     -0.00034379554662
| 26>   C   -3.71279324924276      0.61270000430768     -0.00038290810371
| 27>   C   -2.51870888891228      1.35470401292599     -0.00035207453727
| 28>   C   -2.33852946574720      2.75004532075493     -0.00038523866368
| 29>   C   -1.29227857579710      3.37936032270345     -0.00036005870682
| 30>   C   0.02296635156368      2.87874227377718     -0.00029143038758
| 31>   C   1.23211767469076      3.59211777508479     -0.00026457178571
| 32>   C   2.42594730830480      2.92563510630820     -0.00019121984698
| 33>   C   2.44893445959464      1.52227723319545     -0.00014614397662
| 34>   C   3.55845924150033      0.65762020353451     -0.00006795876215
| 35>   C   3.57066637986837     -0.56331157183495     -0.00002324805222
| 36>   C   2.47403114247392     -1.44414615823703     -0.00004617494814
| 37>   C   1.25557023434205     -0.69183165762109     -0.00012491861115
| 38>   C   1.23800989899349      0.75081893774134     -0.00017659337158
| 39>   C   -0.00359548669936      1.44369816359284     -0.00024809051538
| 40>   C   -1.24385874208543      0.70472511229996     -0.00028011039122
| 41>   C   -1.22033926149096     -0.71624674943317     -0.00023589301594
| 42>   C   0.03056944314590     -1.40895937212992     -0.00016349124726
| 43>   H   3.40592714860256     -3.38099880595279      0.00006084796734
| 44>   H   1.25543248807529     -4.60779790743838     -0.00000593698860
| 45>   H   -3.32874432396662     -3.42840544994019     -0.00026138694326
| 46>   H   -4.58380467774224     -1.32989113444890     -0.00036599782084
| 47>   H   -4.65611295060898      1.14148914368134     -0.00043697075864
| 48>   H   3.36338199069149      3.46449630946482     -0.00016807868239
| 49> **                         ****END OF INPUT****
 Total Charge           Charge          ....    0
 Multiplicity           Mult            ....    1
 Number of Electrons    NEL             ....  150
FINAL SINGLE POINT ENERGY      -917.707288400445
FINAL SINGLE POINT ENERGY      -917.710461970403
FINAL SINGLE POINT ENERGY      -917.712091577962
FINAL SINGLE POINT ENERGY      -917.712161414091
FINAL SINGLE POINT ENERGY      -917.712195220015
FINAL SINGLE POINT ENERGY      -917.712208638717
FINAL SINGLE POINT ENERGY      -917.712222474268
FINAL SINGLE POINT ENERGY      -917.712228734999
FINAL SINGLE POINT ENERGY      -917.712232595227
FINAL SINGLE POINT ENERGY      -917.712234434215
                    ***********************HURRAY********************

CARTESIAN COORDINATES (ANGSTROEM)
---------------------------------
  C      2.474579   -2.852068   -0.001420
  C      1.295067   -3.536038   -0.001296
  C      0.068005   -2.840670    0.000475
  C     -1.198307   -3.409072    0.001300
  C     -2.401976   -2.874092    0.001841
  C     -2.435579   -1.421853   -0.000413
  C     -3.674493   -0.749226   -0.001005
  C     -3.718205    0.615357   -0.001432
  C     -2.524186    1.357798   -0.001353
  C     -2.370624    2.757371   -0.002493
  C     -1.310414    3.364730   -0.002138
  C      0.013464    2.902426   -0.000154
  C      1.234724    3.548579    0.000501
  C      2.426729    2.929905    0.001087
  C      2.447349    1.508834   -0.000548
  C      3.560358    0.652187   -0.000689
  C      3.575290   -0.568689   -0.000609
  C      2.478881   -1.446215   -0.000469
  C      1.256052   -0.697951    0.000239
  C      1.232244    0.749551   -0.000010
  C     -0.006916    1.444517    0.000442
  C     -1.247552    0.710254   -0.000275
  C     -1.217648   -0.713608    0.000093
  C      0.031081   -1.409474    0.001000
  H      3.419628   -3.377114   -0.002240
  H      1.274840   -4.616778   -0.001870
  H     -3.339878   -3.418537    0.004904
  H     -4.586709   -1.332350   -0.001202
  H     -4.660989    1.145839   -0.002101
  H      3.378839    3.449914    0.003750

 Multiplicity           Mult            ....    1
 Number of Electrons    NEL             ....  150
 Basis Dimension        Dim             ....  780

ORBITAL ENERGIES
----------------

  NO   OCC          E(Eh)            E(eV)
   0   2.0000     -10.606254      -288.6108
   1   2.0000     -10.600780      -288.4619
   2   2.0000     -10.600396      -288.4514
   3   2.0000     -10.596910      -288.3566
   4   2.0000     -10.595886      -288.3287
   5   2.0000     -10.595529      -288.3190
   6   2.0000     -10.594853      -288.3006
   7   2.0000     -10.592152      -288.2271
   8   2.0000     -10.590626      -288.1856
   9   2.0000     -10.590351      -288.1781
  10   2.0000     -10.586566      -288.0751
  11   2.0000     -10.585725      -288.0522
  12   2.0000     -10.585440      -288.0445
  13   2.0000     -10.583904      -288.0027
  14   2.0000     -10.574358      -287.7429
  15   2.0000     -10.571588      -287.6675
  16   2.0000     -10.571334      -287.6606
  17   2.0000     -10.568557      -287.5851
  18   2.0000     -10.563376      -287.4441
  19   2.0000     -10.563115      -287.4370
  20   2.0000     -10.562267      -287.4139
  21   2.0000     -10.560506      -287.3660
  22   2.0000     -10.558527      -287.3121
  23   2.0000     -10.551311      -287.1158
  24   2.0000      -1.044577       -28.4244
  25   2.0000      -1.006614       -27.3914
  26   2.0000      -1.005008       -27.3477
  27   2.0000      -0.955286       -25.9947
  28   2.0000      -0.953182       -25.9374
  29   2.0000      -0.929991       -25.3063
  30   2.0000      -0.903354       -24.5815
  31   2.0000      -0.882550       -24.0154
  32   2.0000      -0.859437       -23.3865
  33   2.0000      -0.856768       -23.3138
  34   2.0000      -0.831849       -22.6358
  35   2.0000      -0.823496       -22.4085
  36   2.0000      -0.749721       -20.4009
  37   2.0000      -0.741752       -20.1841
  38   2.0000      -0.736599       -20.0439
  39   2.0000      -0.719053       -19.5664
  40   2.0000      -0.712838       -19.3973
  41   2.0000      -0.664234       -18.0747
  42   2.0000      -0.639172       -17.3928
  43   2.0000      -0.630300       -17.1513
  44   2.0000      -0.612980       -16.6800
  45   2.0000      -0.605696       -16.4818
  46   2.0000      -0.597695       -16.2641
  47   2.0000      -0.564236       -15.3536
  48   2.0000      -0.552421       -15.0321
  49   2.0000      -0.548409       -14.9230
  50   2.0000      -0.541814       -14.7435
  51   2.0000      -0.533347       -14.5131
  52   2.0000      -0.528923       -14.3927
  53   2.0000      -0.522519       -14.2185
  54   2.0000      -0.509025       -13.8513
  55   2.0000      -0.497569       -13.5395
  56   2.0000      -0.488464       -13.2918
  57   2.0000      -0.487857       -13.2753
  58   2.0000      -0.472799       -12.8655
  59   2.0000      -0.469049       -12.7635
  60   2.0000      -0.459530       -12.5044
  61   2.0000      -0.439157       -11.9501
  62   2.0000      -0.428242       -11.6531
  63   2.0000      -0.425881       -11.5888
  64   2.0000      -0.424351       -11.5472
  65   2.0000      -0.407113       -11.0781
  66   2.0000      -0.359502        -9.7825
  67   2.0000      -0.348226        -9.4757
  68   2.0000      -0.343690        -9.3523
  69   2.0000      -0.335637        -9.1332
  70   2.0000      -0.330919        -9.0048
  71   2.0000      -0.329875        -8.9763
  72   2.0000      -0.274867        -7.4795
  73   2.0000      -0.273015        -7.4291
  74   2.0000      -0.212320        -5.7775
  75   0.0000      -0.168442        -4.5835
  76   0.0000      -0.060299        -1.6408
  77   0.0000      -0.052320        -1.4237
  78   0.0000      -0.049863        -1.3569
  79   0.0000      -0.038785        -1.0554

MULLIKEN ATOMIC CHARGES
-----------------------
   0 C :   -0.194681
   1 C :   -0.216164
   2 C :    0.061491
   3 C :    0.066698
   4 C :   -0.316990
   5 C :    0.175873
   6 C :   -0.150932
   7 C :   -0.216977
   8 C :    0.081219
   9 C :   -0.050937
  10 C :   -0.076486
  11 C :    0.046751
  12 C :   -0.097383
  13 C :   -0.292405
  14 C :    0.123597
  15 C :   -0.049938
  16 C :   -0.068147
  17 C :    0.079540
  18 C :    0.021932
  19 C :    0.012225
  20 C :    0.073845
  21 C :   -0.030824
  22 C :   -0.022870
  23 C :    0.122782
  24 H :    0.153898
  25 H :    0.149466
  26 H :    0.163133
  27 H :    0.143100
  28 H :    0.152585
  29 H :    0.156600
Sum of atomic charges:   -0.0000000

LOEWDIN ATOMIC CHARGES
----------------------
   0 C :   -0.089096
   1 C :   -0.087784
   2 C :   -0.108824
   3 C :    0.080258
   4 C :   -0.106859
   5 C :   -0.073542
   6 C :   -0.096166
   7 C :   -0.088374
   8 C :   -0.094017
   9 C :    0.004742
  10 C :    0.036736
  11 C :   -0.118771
  12 C :   -0.001596
  13 C :   -0.124764
  14 C :   -0.083420
  15 C :    0.023777
  16 C :    0.019254
  17 C :   -0.091461
  18 C :    0.013498
  19 C :    0.005262
  20 C :    0.020527
  21 C :    0.010419
  22 C :   -0.009086
  23 C :    0.009457
  24 H :    0.157318
  25 H :    0.156020
  26 H :    0.165344
  27 H :    0.153522
  28 H :    0.156607
  29 H :    0.161017

  Mayer bond orders larger than 0.100000
B(  0-C ,  1-C ) :   1.5465 B(  0-C , 17-C ) :   1.2884 B(  0-C , 24-H ) :   0.9460
B(  1-C ,  2-C ) :   1.2730 B(  1-C , 25-H ) :   0.9478 B(  2-C ,  3-C ) :   1.1832
B(  2-C , 23-C ) :   1.2587 B(  3-C ,  4-C ) :   1.8286 B(  3-C , 12-C ) :   0.5813
B(  4-C ,  5-C ) :   1.0278 B(  4-C , 26-H ) :   0.9171 B(  5-C ,  6-C ) :   1.2596
B(  5-C , 22-C ) :   1.3237 B(  6-C ,  7-C ) :   1.5641 B(  6-C , 27-H ) :   0.9377
B(  7-C ,  8-C ) :   1.2961 B(  7-C , 28-H ) :   0.9411 B(  8-C ,  9-C ) :   1.1513
B(  8-C , 21-C ) :   1.2968 B(  9-C , 10-C ) :   2.4745 B( 10-C , 11-C ) :   1.1837
B( 11-C , 12-C ) :   1.2244 B( 11-C , 20-C ) :   1.2412 B( 12-C , 13-C ) :   1.6722
B( 13-C , 14-C ) :   1.1496 B( 13-C , 29-H ) :   0.9537 B( 14-C , 15-C ) :   1.1631
B( 14-C , 19-C ) :   1.2833 B( 15-C , 16-C ) :   2.5424 B( 16-C , 17-C ) :   1.1545
B( 17-C , 18-C ) :   1.2907 B( 18-C , 19-C ) :   1.1966 B( 18-C , 23-C ) :   1.1420
B( 19-C , 20-C ) :   1.1738 B( 20-C , 21-C ) :   1.1886 B( 21-C , 22-C ) :   1.1504
B( 22-C , 23-C ) :   1.1910

FINAL SINGLE POINT ENERGY      -917.712236377373

DIPOLE MOMENT
-------------
                                X             Y             Z
Electronic contribution:      3.46332       5.67522      -0.00066
Nuclear contribution   :     -4.14538      -7.49330       0.00282
                        -----------------------------------------
Total Dipole Moment    :     -0.68205      -1.81808       0.00217
                        -----------------------------------------
Magnitude (a.u.)       :      1.94181
Magnitude (Debye)      :      4.93569

VIBRATIONAL FREQUENCIES
-----------------------

Scaling factor for frequencies =  1.000000000  (already applied!)

   0:         0.00 cm**-1
   1:         0.00 cm**-1
   2:         0.00 cm**-1
   3:         0.00 cm**-1
   4:         0.00 cm**-1
   5:         0.00 cm**-1
   6:      -431.70 cm**-1 ***imaginary mode***
   7:        69.14 cm**-1
   8:        91.38 cm**-1
   9:       129.64 cm**-1
  10:       166.58 cm**-1
  11:       203.79 cm**-1
  12:       226.70 cm**-1
  13:       271.85 cm**-1
  14:       307.42 cm**-1
  15:       325.31 cm**-1
  16:       355.48 cm**-1
  17:       363.83 cm**-1
  18:       371.83 cm**-1
  19:       388.32 cm**-1
  20:       400.30 cm**-1
  21:       431.11 cm**-1
  22:       436.12 cm**-1
  23:       449.67 cm**-1
  24:       465.18 cm**-1
  25:       467.55 cm**-1
  26:       498.28 cm**-1
  27:       511.16 cm**-1
  28:       517.53 cm**-1
  29:       524.26 cm**-1
  30:       538.27 cm**-1
  31:       560.31 cm**-1
  32:       585.94 cm**-1
  33:       619.78 cm**-1
  34:       655.99 cm**-1
  35:       660.50 cm**-1
  36:       668.28 cm**-1
  37:       681.86 cm**-1
  38:       722.52 cm**-1
  39:       728.64 cm**-1
  40:       785.54 cm**-1
  41:       822.13 cm**-1
  42:       824.96 cm**-1
  43:       834.32 cm**-1
  44:       842.77 cm**-1
  45:       848.00 cm**-1
  46:       862.84 cm**-1
  47:       865.02 cm**-1
  48:       878.09 cm**-1
  49:       976.06 cm**-1
  50:       986.20 cm**-1
  51:       993.19 cm**-1
  52:       993.67 cm**-1
  53:      1031.68 cm**-1
  54:      1067.77 cm**-1
  55:      1120.60 cm**-1
  56:      1145.00 cm**-1
  57:      1170.23 cm**-1
  58:      1189.69 cm**-1
  59:      1210.65 cm**-1
  60:      1213.60 cm**-1
  61:      1238.24 cm**-1
  62:      1245.02 cm**-1
  63:      1269.23 cm**-1
  64:      1307.40 cm**-1
  65:      1321.98 cm**-1
  66:      1347.19 cm**-1
  67:      1369.01 cm**-1
  68:      1371.76 cm**-1
  69:      1394.33 cm**-1
  70:      1407.10 cm**-1
  71:      1410.10 cm**-1
  72:      1450.65 cm**-1
  73:      1464.52 cm**-1
  74:      1477.29 cm**-1
  75:      1496.96 cm**-1
  76:      1560.00 cm**-1
  77:      1579.04 cm**-1
  78:      1594.64 cm**-1
  79:      1640.10 cm**-1
  80:      1649.26 cm**-1
  81:      1705.90 cm**-1
  82:      2120.83 cm**-1
  83:      2141.21 cm**-1
  84:      3184.60 cm**-1
  85:      3191.51 cm**-1
  86:      3218.13 cm**-1
  87:      3233.06 cm**-1
  88:      3237.36 cm**-1
  89:      3247.49 cm**-1

IR SPECTRUM
-----------

 Mode   freq       eps      Int      T**2         TX        TY        TZ
       cm**-1   L/(mol*cm) km/mol    a.u.
----------------------------------------------------------------------------
  7:     69.14   0.000507    2.56  0.002290  (-0.000075  0.000029  0.047859)
  8:     91.38   0.000035    0.17  0.000118  (-0.000133  0.000133 -0.010869)
  9:    129.64   0.000843    4.26  0.002030  (-0.000273 -0.001192 -0.045038)
 10:    166.58   0.000003    0.02  0.000006  ( 0.000528  0.001566 -0.001705)
 11:    203.79   0.000887    4.48  0.001358  (-0.000024  0.001105  0.036829)
 12:    226.70   0.000075    0.38  0.000104  (-0.000064  0.000745 -0.010165)
 13:    271.85   0.455557  2302.20  0.522942  ( 0.224098  0.687548 -0.000097)
 14:    307.42   0.000827    4.18  0.000840  (-0.000033 -0.000032  0.028982)
 15:    325.31   0.000011    0.05  0.000010  ( 0.000769  0.001830 -0.002510)
 16:    355.48   0.052005  262.81  0.045654  ( 0.059285  0.205278  0.000333)
 17:    363.83   0.019526   98.68  0.016748  (-0.061144 -0.114051  0.001236)
 18:    371.83   0.001552    7.84  0.001302  ( 0.002054  0.001624  0.035991)
 19:    388.32   0.004350   21.98  0.003496  ( 0.003769  0.059007  0.000242)
 20:    400.30   0.000436    2.20  0.000340  (-0.017873  0.004508  0.000214)
 21:    431.11   0.000172    0.87  0.000124  (-0.000396  0.002120 -0.010944)
 22:    436.12   0.017222   87.03  0.012323  ( 0.034941 -0.105366 -0.000104)
 23:    449.67   0.000025    0.13  0.000018  ( 0.000629  0.000165  0.004153)
 24:    465.18   0.012220   61.75  0.008198  (-0.056559 -0.070700  0.000387)
 25:    467.55   0.000070    0.35  0.000047  (-0.004002 -0.004288 -0.003508)
 26:    498.28   0.001478    7.47  0.000926  ( 0.008698  0.029157 -0.000004)
 27:    511.16   0.020405  103.12  0.012457  (-0.035402 -0.105847  0.000027)
 28:    517.53   0.002851   14.41  0.001719  (-0.000055 -0.041460 -0.000230)
 29:    524.26   0.000239    1.21  0.000142  (-0.000326 -0.002028  0.011748)
 30:    538.27   0.182009  919.80  0.105520  (-0.102318 -0.308304  0.000048)
 31:    560.31   0.000095    0.48  0.000053  (-0.000832 -0.001854  0.006979)
 32:    585.94   0.000610    3.08  0.000325  ( 0.000777  0.001146  0.017971)
 33:    619.78   0.083199  420.45  0.041891  (-0.075904 -0.190079  0.000148)
 34:    655.99   0.000234    1.18  0.000111  (-0.001934 -0.002795 -0.009977)
 35:    660.50   0.006642   33.56  0.003138  (-0.036820 -0.042214  0.000522)
 36:    668.28   0.000225    1.13  0.000105  ( 0.001365  0.000606  0.010131)
 37:    681.86   0.001960    9.91  0.000897  ( 0.012172  0.027367 -0.000102)
 38:    722.52   0.001530    7.73  0.000661  (-0.010622 -0.023413  0.000081)
 39:    728.64   0.000168    0.85  0.000072  ( 0.000380 -0.000425  0.008474)
 40:    785.54   0.000764    3.86  0.000304  ( 0.000226  0.000211  0.017422)
 41:    822.13   0.000029    0.14  0.000011  (-0.000240 -0.000717  0.003210)
 42:    824.96   0.004678   23.64  0.001769  (-0.011568 -0.040443  0.000120)
 43:    834.32   0.004595   23.22  0.001719  (-0.008597 -0.040556  0.000251)
 44:    842.77   0.004521   22.85  0.001674  (-0.000319 -0.001188 -0.040895)
 45:    848.00   0.003162   15.98  0.001164  ( 0.000169  0.000644 -0.034107)
 46:    862.84   0.007094   35.85  0.002566  ( 0.000301  0.000390  0.050652)
 47:    865.02   0.011138   56.29  0.004018  (-0.030124 -0.055769  0.000740)
 48:    878.09   0.000713    3.60  0.000253  ( 0.000547  0.000180  0.015908)
 49:    976.06   0.010275   51.93  0.003285  (-0.026310 -0.050920 -0.000008)
 50:    986.20   0.005598   28.29  0.001771  ( 0.014512  0.039508 -0.000068)
 51:    993.19   0.000014    0.07  0.000004  (-0.000017 -0.000157 -0.002055)
 52:    993.67   0.000013    0.07  0.000004  (-0.000144 -0.000439  0.001972)
 53:   1031.68   0.012737   64.37  0.003853  (-0.027111 -0.055835  0.000147)
 54:   1067.77   0.187501  947.56  0.054799  (-0.080242 -0.219909 -0.000051)
 55:   1120.60   0.004590   23.20  0.001278  ( 0.021838  0.028308  0.000045)
 56:   1145.00   0.007516   37.98  0.002049  ( 0.010663 -0.043987 -0.000105)
 57:   1170.23   0.006279   31.73  0.001674  (-0.023321 -0.033623 -0.000027)
 58:   1189.69   0.005620   28.40  0.001474  (-0.020533 -0.032442  0.000073)
 59:   1210.65   0.003240   16.37  0.000835  ( 0.003939 -0.028630  0.000041)
 60:   1213.60   0.002634   13.31  0.000677  (-0.003393 -0.025801 -0.000018)
 61:   1238.24   0.043810  221.40  0.011041  ( 0.044266  0.095298 -0.000030)
 62:   1245.02   0.005129   25.92  0.001286  (-0.024734 -0.025957 -0.000020)
 63:   1269.23   0.000319    1.61  0.000078  ( 0.007052 -0.005349 -0.000052)
 64:   1307.40   0.009930   50.18  0.002370  ( 0.032290  0.036435 -0.000019)
 65:   1321.98   0.004991   25.22  0.001178  ( 0.021275  0.026937  0.000005)
 66:   1347.19   0.001029    5.20  0.000238  ( 0.007085  0.013721 -0.000063)
 67:   1369.01   0.003101   15.67  0.000707  (-0.002885 -0.026430 -0.000156)
 68:   1371.76   0.005333   26.95  0.001213  (-0.009933 -0.033385  0.000024)
 69:   1394.33   0.008071   40.79  0.001806  (-0.017834 -0.038578 -0.000098)
 70:   1407.10   0.003222   16.28  0.000715  (-0.013287 -0.023194 -0.000094)
 71:   1410.10   0.003672   18.56  0.000813  ( 0.012729  0.025509  0.000002)
 72:   1450.65   0.054584  275.85  0.011742  ( 0.071670  0.081275 -0.000089)
 73:   1464.52   0.009653   48.78  0.002057  ( 0.035878  0.027742 -0.000061)
 74:   1477.29   0.007596   38.39  0.001605  ( 0.026614  0.029939 -0.000035)
 75:   1496.96   0.004639   23.45  0.000967  (-0.024509  0.019144  0.000123)
 76:   1560.00   0.024437  123.50  0.004888  ( 0.007164  0.069550 -0.000017)
 77:   1579.04   0.001947    9.84  0.000385  (-0.008055  0.017884 -0.000044)
 78:   1594.64   0.008857   44.76  0.001733  (-0.003906 -0.041448  0.000096)
 79:   1640.10   0.005101   25.78  0.000971  ( 0.002086 -0.031082  0.000230)
 80:   1649.26   0.001378    6.96  0.000261  (-0.008900 -0.013469 -0.000168)
 81:   1705.90   0.012940   65.39  0.002367  ( 0.019515  0.044567  0.000176)
 82:   2120.83   0.000953    4.82  0.000140  (-0.001306 -0.011769  0.000007)
 83:   2141.21   0.000934    4.72  0.000136  ( 0.005709 -0.010175  0.000048)
 84:   3184.60   0.003718   18.79  0.000364  ( 0.008326  0.017177 -0.000007)
 85:   3191.51   0.002528   12.78  0.000247  ( 0.000494  0.015716  0.000015)
 86:   3218.13   0.000939    4.74  0.000091  (-0.006865 -0.006624 -0.000009)
 87:   3233.06   0.000145    0.73  0.000014  (-0.000280 -0.003736 -0.000014)
 88:   3237.36   0.000788    3.98  0.000076  (-0.007764 -0.003955  0.000004)
 89:   3247.49   0.000270    1.37  0.000026  ( 0.001317 -0.004923 -0.000001)

--------------------------
THERMOCHEMISTRY AT 10000.00K
--------------------------

Temperature         ... 10000.00 K
Pressure            ... 1.00 atm
Total Mass          ... 294.31 AMU

Throughout the following assumptions are being made:
  (1) The electronic state is orbitally nondegenerate
  (2) There are no thermally accessible electronically excited states
  (3) Hindered rotations indicated by low frequency modes are not
      treated as such but are treated as vibrations and this may
      cause some error
  (4) All equations used are the standard statistical mechanics
      equations for an ideal gas
  (5) All vibrations are strictly harmonic

freq.      69.14  E(vib)   ...      19.77
freq.      91.38  E(vib)   ...      19.74
freq.     129.64  E(vib)   ...      19.69
freq.     166.58  E(vib)   ...      19.64
freq.     203.79  E(vib)   ...      19.58
freq.     226.70  E(vib)   ...      19.55
freq.     271.85  E(vib)   ...      19.49
freq.     307.42  E(vib)   ...      19.44
freq.     325.31  E(vib)   ...      19.41
freq.     355.48  E(vib)   ...      19.37
freq.     363.83  E(vib)   ...      19.36
freq.     371.83  E(vib)   ...      19.35
freq.     388.32  E(vib)   ...      19.32
freq.     400.30  E(vib)   ...      19.31
freq.     431.11  E(vib)   ...      19.26
freq.     436.12  E(vib)   ...      19.26
freq.     449.67  E(vib)   ...      19.24
freq.     465.18  E(vib)   ...      19.21
freq.     467.55  E(vib)   ...      19.21
freq.     498.28  E(vib)   ...      19.17
freq.     511.16  E(vib)   ...      19.15
freq.     517.53  E(vib)   ...      19.14
freq.     524.26  E(vib)   ...      19.13
freq.     538.27  E(vib)   ...      19.11
freq.     560.31  E(vib)   ...      19.08
freq.     585.94  E(vib)   ...      19.05
freq.     619.78  E(vib)   ...      19.00
freq.     655.99  E(vib)   ...      18.95
freq.     660.50  E(vib)   ...      18.94
freq.     668.28  E(vib)   ...      18.93
freq.     681.86  E(vib)   ...      18.91
freq.     722.52  E(vib)   ...      18.86
freq.     728.64  E(vib)   ...      18.85
freq.     785.54  E(vib)   ...      18.77
freq.     822.13  E(vib)   ...      18.72
freq.     824.96  E(vib)   ...      18.72
freq.     834.32  E(vib)   ...      18.70
freq.     842.77  E(vib)   ...      18.69
freq.     848.00  E(vib)   ...      18.68
freq.     862.84  E(vib)   ...      18.66
freq.     865.02  E(vib)   ...      18.66
freq.     878.09  E(vib)   ...      18.64
freq.     976.06  E(vib)   ...      18.51
freq.     986.20  E(vib)   ...      18.50
freq.     993.19  E(vib)   ...      18.49
freq.     993.67  E(vib)   ...      18.49
freq.    1031.68  E(vib)   ...      18.43
freq.    1067.77  E(vib)   ...      18.39
freq.    1120.60  E(vib)   ...      18.31
freq.    1145.00  E(vib)   ...      18.28
freq.    1170.23  E(vib)   ...      18.25
freq.    1189.69  E(vib)   ...      18.22
freq.    1210.65  E(vib)   ...      18.19
freq.    1213.60  E(vib)   ...      18.19
freq.    1238.24  E(vib)   ...      18.15
freq.    1245.02  E(vib)   ...      18.15
freq.    1269.23  E(vib)   ...      18.11
freq.    1307.40  E(vib)   ...      18.06
freq.    1321.98  E(vib)   ...      18.04
freq.    1347.19  E(vib)   ...      18.01
freq.    1369.01  E(vib)   ...      17.98
freq.    1371.76  E(vib)   ...      17.98
freq.    1394.33  E(vib)   ...      17.95
freq.    1407.10  E(vib)   ...      17.93
freq.    1410.10  E(vib)   ...      17.92
freq.    1450.65  E(vib)   ...      17.87
freq.    1464.52  E(vib)   ...      17.85
freq.    1477.29  E(vib)   ...      17.84
freq.    1496.96  E(vib)   ...      17.81
freq.    1560.00  E(vib)   ...      17.73
freq.    1579.04  E(vib)   ...      17.70
freq.    1594.64  E(vib)   ...      17.68
freq.    1640.10  E(vib)   ...      17.62
freq.    1649.26  E(vib)   ...      17.61
freq.    1705.90  E(vib)   ...      17.53
freq.    2120.83  E(vib)   ...      16.99
freq.    2141.21  E(vib)   ...      16.97
freq.    3184.60  E(vib)   ...      15.67
freq.    3191.51  E(vib)   ...      15.66
freq.    3218.13  E(vib)   ...      15.63
freq.    3233.06  E(vib)   ...      15.61
freq.    3237.36  E(vib)   ...      15.60
freq.    3247.49  E(vib)   ...      15.59

------------
INNER ENERGY
------------

The inner energy is: U= E(el) + E(ZPE) + E(vib) + E(rot) + E(trans)
    E(el)   - is the total energy from the electronic structure calculation
              = E(kin-el) + E(nuc-el) + E(el-el) + E(nuc-nuc)
    E(ZPE)  - the the zero temperature vibrational energy from the frequency calculation
    E(vib)  - the the finite temperature correction to E(ZPE) due to population
              of excited vibrational states
    E(rot)  - is the rotational thermal energy
    E(trans)- is the translational thermal energy

Summary of contributions to the inner energy U:
Electronic energy                ...   -917.71223638 Eh
Zero point energy                ...      0.20259847 Eh     127.13 kcal/mol
Thermal vibrational correction   ...      2.43374425 Eh    1527.19 kcal/mol
Thermal rotational correction    ...      0.04750198 Eh      29.81 kcal/mol
Thermal translational correction ...      0.04750198 Eh      29.81 kcal/mol
-----------------------------------------------------------------------
Total thermal energy                   -914.98088971 Eh

Summary of corrections to the electronic energy:
(perhaps to be used in another calculation)
Total thermal correction                  2.52874820 Eh    1586.81 kcal/mol
Non-thermal (ZPE) correction              0.20259847 Eh     127.13 kcal/mol
-----------------------------------------------------------------------
Total correction                          2.73134667 Eh    1713.94 kcal/mol

--------
ENTHALPY
--------

The enthalpy is H = U + kB*T
                kB is Boltzmann's constant
Total free energy                 ...   -914.98088971 Eh
Thermal Enthalpy correction       ...      0.03166893 Eh      19.87 kcal/mol
-----------------------------------------------------------------------
Total Enthalpy                    ...   -914.94922078 Eh

Note: Only C1 symmetry has been detected, increase convergence thresholds
      if your molecule has a higher symmetry. Symmetry factor of 1.0 is
      used for the rotational entropy correction.

Note: Rotational entropy computed according to Herzberg
Infrared and Raman Spectra, Chapter V,1, Van Nostrand Reinhold, 1945
Point Group:  C1, Symmetry Number:   1
Rotational constants in cm-1:     0.011941     0.011665     0.005901

Vibrational entropy computed according to the QRRHO of S. Grimme
Chem.Eur.J. 2012 18 9955

-------
ENTROPY
-------

                             ****ORCA TERMINATED NORMALLY****
TOTAL RUN TIME: 0 days 7 hours 49 minutes 27 seconds 141 msec
