                         Program Version 5.0.4 -  RELEASE  -
|  1> !M062x def2-tzvp opt freq tightscf
|  2>
|  3> %freq
|  4> Temp 298.15,10,20,50,100,6000,8000,10000
|  5> end
|  6>
|  7> %maxcore 2000
|  8> %pal
|  9> nprocs 8
| 10> end
| 11>
| 12>
| 13> %geom
| 14>   maxiter 2000
| 15>   end
| 16>
| 17> * xyz 0 1
| 18>   C   2.46362427987247     -2.85071308273857     -0.00000218907091
| 19>   C   1.27719400513090     -3.52585311672403     -0.00003902795947
| 20>   C   0.05064934326115     -2.82613554872827     -0.00011828018749
| 21>   C   -1.19925193688694     -3.46606389677068     -0.00015928151260
| 22>   C   -2.39885271805658     -2.87183824187673     -0.00023283554738
| 23>   C   -2.43518053153382     -1.44080024452875     -0.00027277196623
| 24>   C   -3.66777674509120     -0.75191121775761     -0.00034379554662
| 25>   C   -3.71279324924276      0.61270000430768     -0.00038290810371
| 26>   C   -2.51870888891228      1.35470401292599     -0.00035207453727
| 27>   C   -2.33852946574720      2.75004532075493     -0.00038523866368
| 28>   C   -1.29227857579710      3.37936032270345     -0.00036005870682
| 29>   C   0.02296635156368      2.87874227377718     -0.00029143038758
| 30>   C   1.23211767469076      3.59211777508479     -0.00026457178571
| 31>   C   2.42594730830480      2.92563510630820     -0.00019121984698
| 32>   C   2.44893445959464      1.52227723319545     -0.00014614397662
| 33>   C   3.55845924150033      0.65762020353451     -0.00006795876215
| 34>   C   3.57066637986837     -0.56331157183495     -0.00002324805222
| 35>   C   2.47403114247392     -1.44414615823703     -0.00004617494814
| 36>   C   1.25557023434205     -0.69183165762109     -0.00012491861115
| 37>   C   1.23800989899349      0.75081893774134     -0.00017659337158
| 38>   C   -0.00359548669936      1.44369816359284     -0.00024809051538
| 39>   C   -1.24385874208543      0.70472511229996     -0.00028011039122
| 40>   C   -1.22033926149096     -0.71624674943317     -0.00023589301594
| 41>   C   0.03056944314590     -1.40895937212992     -0.00016349124726
| 42>   H   3.40592714860256     -3.38099880595279      0.00006084796734
| 43>   H   1.25543248807529     -4.60779790743838     -0.00000593698860
| 44>   H   -3.32874432396662     -3.42840544994019     -0.00026138694326
| 45>   H   -4.58380467774224     -1.32989113444890     -0.00036599782084
| 46>   H   -4.65611295060898      1.14148914368134     -0.00043697075864
| 47>   H   1.19941226127863      4.67287271493635     -0.00030009286005
| 48> **                         ****END OF INPUT****
 Total Charge           Charge          ....    0
 Multiplicity           Mult            ....    1
 Number of Electrons    NEL             ....  150
FINAL SINGLE POINT ENERGY      -917.712283663861
FINAL SINGLE POINT ENERGY      -917.715933642287
FINAL SINGLE POINT ENERGY      -917.717911852330
FINAL SINGLE POINT ENERGY      -917.717982834785
FINAL SINGLE POINT ENERGY      -917.718011946910
FINAL SINGLE POINT ENERGY      -917.718023447208
FINAL SINGLE POINT ENERGY      -917.718033844729
FINAL SINGLE POINT ENERGY      -917.718038346262
FINAL SINGLE POINT ENERGY      -917.718041170838
                    ***********************HURRAY********************

CARTESIAN COORDINATES (ANGSTROEM)
---------------------------------
  C      2.474565   -2.855937    0.000036
  C      1.293877   -3.537028    0.000002
  C      0.068837   -2.839536   -0.000130
  C     -1.195021   -3.401545   -0.000190
  C     -2.405332   -2.870879   -0.000273
  C     -2.440203   -1.426907   -0.000261
  C     -3.675564   -0.748076   -0.000321
  C     -3.716487    0.617146   -0.000359
  C     -2.521422    1.355615   -0.000337
  C     -2.346327    2.750202   -0.000371
  C     -1.302913    3.384132   -0.000357
  C      0.010816    2.880736   -0.000291
  C      1.228621    3.600737   -0.000253
  C      2.373574    2.894410   -0.000238
  C      2.475250    1.522479   -0.000181
  C      3.558128    0.633011   -0.000108
  C      3.594372   -0.588130   -0.000035
  C      2.483371   -1.450451   -0.000044
  C      1.262095   -0.699699   -0.000141
  C      1.235320    0.747859   -0.000195
  C     -0.003475    1.444538   -0.000262
  C     -1.244736    0.707249   -0.000278
  C     -1.221553   -0.713464   -0.000241
  C      0.030992   -1.401517   -0.000192
  H      3.418807   -3.382323    0.000123
  H      1.268859   -4.617789    0.000056
  H     -3.335554   -3.428169   -0.000379
  H     -4.590306   -1.327219   -0.000334
  H     -4.659036    1.147779   -0.000404
  H      1.190125    4.684678   -0.000260

 Multiplicity           Mult            ....    1
 Number of Electrons    NEL             ....  150
 Basis Dimension        Dim             ....  780

ORBITAL ENERGIES
----------------

  NO   OCC          E(Eh)            E(eV)
   0   2.0000     -10.604305      -288.5578
   1   2.0000     -10.599758      -288.4341
   2   2.0000     -10.599475      -288.4264
   3   2.0000     -10.599021      -288.4140
   4   2.0000     -10.596927      -288.3571
   5   2.0000     -10.596789      -288.3533
   6   2.0000     -10.594848      -288.3005
   7   2.0000     -10.594473      -288.2903
   8   2.0000     -10.590867      -288.1921
   9   2.0000     -10.590186      -288.1736
  10   2.0000     -10.587714      -288.1063
  11   2.0000     -10.584749      -288.0257
  12   2.0000     -10.584638      -288.0226
  13   2.0000     -10.581645      -287.9412
  14   2.0000     -10.573733      -287.7259
  15   2.0000     -10.571074      -287.6536
  16   2.0000     -10.570061      -287.6260
  17   2.0000     -10.569188      -287.6022
  18   2.0000     -10.566345      -287.5249
  19   2.0000     -10.563190      -287.4390
  20   2.0000     -10.561140      -287.3832
  21   2.0000     -10.560731      -287.3721
  22   2.0000     -10.558330      -287.3068
  23   2.0000     -10.552662      -287.1525
  24   2.0000      -1.044284       -28.4164
  25   2.0000      -1.006467       -27.3874
  26   2.0000      -1.004900       -27.3447
  27   2.0000      -0.954646       -25.9773
  28   2.0000      -0.953813       -25.9546
  29   2.0000      -0.930322       -25.3153
  30   2.0000      -0.903267       -24.5792
  31   2.0000      -0.882450       -24.0127
  32   2.0000      -0.859911       -23.3994
  33   2.0000      -0.857151       -23.3243
  34   2.0000      -0.828388       -22.5416
  35   2.0000      -0.826504       -22.4903
  36   2.0000      -0.750018       -20.4090
  37   2.0000      -0.744127       -20.2487
  38   2.0000      -0.730082       -19.8665
  39   2.0000      -0.720121       -19.5955
  40   2.0000      -0.714987       -19.4558
  41   2.0000      -0.668549       -18.1922
  42   2.0000      -0.629915       -17.1409
  43   2.0000      -0.627698       -17.0805
  44   2.0000      -0.620502       -16.8847
  45   2.0000      -0.607288       -16.5251
  46   2.0000      -0.595211       -16.1965
  47   2.0000      -0.566180       -15.4065
  48   2.0000      -0.557631       -15.1739
  49   2.0000      -0.547361       -14.8945
  50   2.0000      -0.539774       -14.6880
  51   2.0000      -0.533064       -14.5054
  52   2.0000      -0.525568       -14.3014
  53   2.0000      -0.516300       -14.0492
  54   2.0000      -0.512978       -13.9589
  55   2.0000      -0.498999       -13.5785
  56   2.0000      -0.488998       -13.3063
  57   2.0000      -0.487102       -13.2547
  58   2.0000      -0.476286       -12.9604
  59   2.0000      -0.468545       -12.7498
  60   2.0000      -0.460714       -12.5367
  61   2.0000      -0.435170       -11.8416
  62   2.0000      -0.428123       -11.6498
  63   2.0000      -0.426087       -11.5944
  64   2.0000      -0.425918       -11.5898
  65   2.0000      -0.407221       -11.0811
  66   2.0000      -0.359305        -9.7772
  67   2.0000      -0.348549        -9.4845
  68   2.0000      -0.342156        -9.3105
  69   2.0000      -0.337392        -9.1809
  70   2.0000      -0.330888        -9.0039
  71   2.0000      -0.329618        -8.9694
  72   2.0000      -0.274972        -7.4824
  73   2.0000      -0.272423        -7.4130
  74   2.0000      -0.214169        -5.8278
  75   0.0000      -0.163588        -4.4515
  76   0.0000      -0.058479        -1.5913
  77   0.0000      -0.055213        -1.5024
  78   0.0000      -0.048216        -1.3120
  79   0.0000      -0.040119        -1.0917

MULLIKEN ATOMIC CHARGES
-----------------------
   0 C :   -0.189648
   1 C :   -0.213183
   2 C :    0.047244
   3 C :    0.080240
   4 C :   -0.320459
   5 C :    0.162097
   6 C :   -0.147572
   7 C :   -0.224301
   8 C :    0.100246
   9 C :   -0.058686
  10 C :   -0.063734
  11 C :    0.116275
  12 C :   -0.295633
  13 C :   -0.069159
  14 C :    0.036065
  15 C :   -0.079568
  16 C :   -0.050899
  17 C :    0.064289
  18 C :    0.038450
  19 C :    0.105088
  20 C :   -0.015335
  21 C :   -0.051440
  22 C :   -0.029235
  23 C :    0.141919
  24 H :    0.154438
  25 H :    0.150162
  26 H :    0.160711
  27 H :    0.142566
  28 H :    0.153122
  29 H :    0.155940
Sum of atomic charges:   -0.0000000

LOEWDIN ATOMIC CHARGES
----------------------
   0 C :   -0.088433
   1 C :   -0.085791
   2 C :   -0.109958
   3 C :    0.079480
   4 C :   -0.109749
   5 C :   -0.076525
   6 C :   -0.096420
   7 C :   -0.089356
   8 C :   -0.095452
   9 C :    0.020860
  10 C :    0.018676
  11 C :   -0.084770
  12 C :   -0.123896
  13 C :    0.008114
  14 C :   -0.122986
  15 C :    0.038885
  16 C :    0.004552
  17 C :   -0.090276
  18 C :    0.007116
  19 C :    0.026913
  20 C :    0.004368
  21 C :    0.013751
  22 C :   -0.009264
  23 C :    0.012605
  24 H :    0.157686
  25 H :    0.156223
  26 H :    0.163445
  27 H :    0.153615
  28 H :    0.156440
  29 H :    0.160148

  Mayer bond orders larger than 0.100000
B(  0-C ,  1-C ) :   1.5401 B(  0-C , 17-C ) :   1.2895 B(  0-C , 24-H ) :   0.9469
B(  1-C ,  2-C ) :   1.2681 B(  1-C , 25-H ) :   0.9479 B(  2-C ,  3-C ) :   1.2213
B(  2-C , 23-C ) :   1.2357 B(  3-C ,  4-C ) :   1.7984 B(  3-C , 13-C ) :   0.5655
B(  4-C ,  5-C ) :   1.0549 B(  4-C , 26-H ) :   0.9212 B(  5-C ,  6-C ) :   1.2616
B(  5-C , 22-C ) :   1.3127 B(  6-C ,  7-C ) :   1.5605 B(  6-C , 27-H ) :   0.9381
B(  7-C ,  8-C ) :   1.2933 B(  7-C , 28-H ) :   0.9402 B(  8-C ,  9-C ) :   1.1447
B(  8-C , 21-C ) :   1.2946 B(  9-C , 10-C ) :   2.5466 B( 10-C , 11-C ) :   1.1542
B( 11-C , 12-C ) :   1.1768 B( 11-C , 20-C ) :   1.2713 B( 12-C , 13-C ) :   1.6570
B( 12-C , 29-H ) :   0.9555 B( 13-C , 14-C ) :   1.2656 B( 14-C , 15-C ) :   1.1835
B( 14-C , 19-C ) :   1.2277 B( 15-C , 16-C ) :   2.4568 B( 16-C , 17-C ) :   1.1558
B( 17-C , 18-C ) :   1.2913 B( 18-C , 19-C ) :   1.1585 B( 18-C , 23-C ) :   1.1291
B( 19-C , 20-C ) :   1.1903 B( 20-C , 21-C ) :   1.2179 B( 21-C , 22-C ) :   1.1708
B( 22-C , 23-C ) :   1.2008

FINAL SINGLE POINT ENERGY      -917.718042457397

DIPOLE MOMENT
-------------
                                X             Y             Z
Electronic contribution:      4.85484       5.01552      -0.00004
Nuclear contribution   :     -6.16700      -6.36270       0.00005
                        -----------------------------------------
Total Dipole Moment    :     -1.31216      -1.34718       0.00002
                        -----------------------------------------
Magnitude (a.u.)       :      1.88060
Magnitude (Debye)      :      4.78010

VIBRATIONAL FREQUENCIES
-----------------------

Scaling factor for frequencies =  1.000000000  (already applied!)

   0:         0.00 cm**-1
   1:         0.00 cm**-1
   2:         0.00 cm**-1
   3:         0.00 cm**-1
   4:         0.00 cm**-1
   5:         0.00 cm**-1
   6:      -232.30 cm**-1 ***imaginary mode***
   7:        48.57 cm**-1
   8:        89.46 cm**-1
   9:       128.40 cm**-1
  10:       173.65 cm**-1
  11:       222.35 cm**-1
  12:       271.71 cm**-1
  13:       275.48 cm**-1
  14:       305.20 cm**-1
  15:       338.42 cm**-1
  16:       345.87 cm**-1
  17:       354.64 cm**-1
  18:       367.84 cm**-1
  19:       393.99 cm**-1
  20:       399.95 cm**-1
  21:       425.08 cm**-1
  22:       429.03 cm**-1
  23:       462.64 cm**-1
  24:       465.07 cm**-1
  25:       487.79 cm**-1
  26:       500.25 cm**-1
  27:       511.59 cm**-1
  28:       513.17 cm**-1
  29:       527.17 cm**-1
  30:       536.09 cm**-1
  31:       555.25 cm**-1
  32:       593.07 cm**-1
  33:       597.15 cm**-1
  34:       660.22 cm**-1
  35:       669.76 cm**-1
  36:       678.51 cm**-1
  37:       704.20 cm**-1
  38:       724.45 cm**-1
  39:       745.19 cm**-1
  40:       784.74 cm**-1
  41:       806.61 cm**-1
  42:       819.49 cm**-1
  43:       833.16 cm**-1
  44:       846.73 cm**-1
  45:       848.47 cm**-1
  46:       857.87 cm**-1
  47:       864.09 cm**-1
  48:       877.65 cm**-1
  49:       953.85 cm**-1
  50:       981.48 cm**-1
  51:       991.62 cm**-1
  52:       996.09 cm**-1
  53:      1024.51 cm**-1
  54:      1102.67 cm**-1
  55:      1133.34 cm**-1
  56:      1141.62 cm**-1
  57:      1167.92 cm**-1
  58:      1190.34 cm**-1
  59:      1201.57 cm**-1
  60:      1220.29 cm**-1
  61:      1231.86 cm**-1
  62:      1251.34 cm**-1
  63:      1262.00 cm**-1
  64:      1294.92 cm**-1
  65:      1327.21 cm**-1
  66:      1332.72 cm**-1
  67:      1360.67 cm**-1
  68:      1373.47 cm**-1
  69:      1393.96 cm**-1
  70:      1407.76 cm**-1
  71:      1411.64 cm**-1
  72:      1455.71 cm**-1
  73:      1467.74 cm**-1
  74:      1480.31 cm**-1
  75:      1509.61 cm**-1
  76:      1553.54 cm**-1
  77:      1582.17 cm**-1
  78:      1600.94 cm**-1
  79:      1644.56 cm**-1
  80:      1646.41 cm**-1
  81:      1706.13 cm**-1
  82:      2121.60 cm**-1
  83:      2142.36 cm**-1
  84:      3186.33 cm**-1
  85:      3191.73 cm**-1
  86:      3218.45 cm**-1
  87:      3232.97 cm**-1
  88:      3238.35 cm**-1
  89:      3247.53 cm**-1

IR SPECTRUM
-----------

 Mode   freq       eps      Int      T**2         TX        TY        TZ
       cm**-1   L/(mol*cm) km/mol    a.u.
----------------------------------------------------------------------------
  7:     48.57   0.000057    0.29  0.000368  (-0.000011 -0.000070  0.019195)
  8:     89.46   0.000003    0.01  0.000009  (-0.000027  0.000033  0.002999)
  9:    128.40   0.000361    1.83  0.000879  (-0.000019 -0.000065  0.029641)
 10:    173.65   0.000016    0.08  0.000029  ( 0.000049  0.000091 -0.005378)
 11:    222.35   0.000304    1.53  0.000426  ( 0.000081  0.000146  0.020645)
 12:    271.71   0.000001    0.01  0.000001  ( 0.000414  0.000673 -0.000914)
 13:    275.48   0.355834  1798.24  0.403082  ( 0.317894  0.549568  0.000002)
 14:    305.20   0.000139    0.70  0.000142  ( 0.000043  0.000039  0.011936)
 15:    338.42   0.000084    0.42  0.000077  (-0.000011 -0.000007  0.008785)
 16:    345.87   0.000068    0.34  0.000061  ( 0.000035  0.000032 -0.007839)
 17:    354.64   0.019981  100.98  0.017582  ( 0.064791  0.115691 -0.000001)
 18:    367.84   0.061361  310.09  0.052056  (-0.136707 -0.182667 -0.000003)
 19:    393.99   0.003522   17.80  0.002790  ( 0.031884  0.042111  0.000002)
 20:    399.95   0.000079    0.40  0.000062  ( 0.004242 -0.006609 -0.000001)
 21:    425.08   0.000698    3.53  0.000513  ( 0.000016  0.000033  0.022639)
 22:    429.03   0.011010   55.64  0.008008  (-0.088595 -0.012628 -0.000004)
 23:    462.64   0.000103    0.52  0.000069  (-0.000005  0.000025  0.008329)
 24:    465.07   0.012880   65.09  0.008643  ( 0.031957  0.087301 -0.000004)
 25:    487.79   0.000211    1.06  0.000135  ( 0.000048  0.000010 -0.011607)
 26:    500.25   0.001636    8.27  0.001020  ( 0.012194  0.029525  0.000004)
 27:    511.59   0.027338  138.16  0.016676  (-0.064899 -0.111644 -0.000002)
 28:    513.17   0.001402    7.08  0.000852  (-0.010990 -0.027050  0.000001)
 29:    527.17   0.000069    0.35  0.000041  ( 0.000017  0.000032 -0.006405)
 30:    536.09   0.002861   14.46  0.001665  (-0.000007  0.000043  0.040808)
 31:    555.25   0.175038  884.57  0.098375  ( 0.144805  0.278221 -0.000010)
 32:    593.07   0.031767  160.54  0.016715  ( 0.031047  0.125505  0.000001)
 33:    597.15   0.000234    1.18  0.000122  ( 0.000027  0.000030 -0.011048)
 34:    660.22   0.000016    0.08  0.000007  (-0.000048 -0.000006 -0.002731)
 35:    669.76   0.000824    4.16  0.000384  ( 0.000001  0.000001 -0.019590)
 36:    678.51   0.001476    7.46  0.000679  (-0.018027 -0.018807  0.000006)
 37:    704.20   0.001587    8.02  0.000703  ( 0.005739  0.025892 -0.000001)
 38:    724.45   0.002072   10.47  0.000893  ( 0.023479  0.018475  0.000001)
 39:    745.19   0.000000    0.00  0.000000  ( 0.000045 -0.000022 -0.000105)
 40:    784.74   0.000031    0.16  0.000012  ( 0.000013 -0.000009 -0.003503)
 41:    806.61   0.072751  367.65  0.028146  (-0.087828 -0.142941 -0.000009)
 42:    819.49   0.000024    0.12  0.000009  (-0.000011 -0.000014 -0.003035)
 43:    833.16   0.000371    1.88  0.000139  ( 0.004499 -0.010897  0.000003)
 44:    846.73   0.040921  206.80  0.015081  ( 0.068036  0.102237 -0.000009)
 45:    848.47   0.004637   23.43  0.001706  ( 0.000020 -0.000033 -0.041298)
 46:    857.87   0.001309    6.61  0.000476  (-0.000002 -0.000031 -0.021819)
 47:    864.09   0.009511   48.06  0.003435  (-0.000009  0.000046 -0.058607)
 48:    877.65   0.000658    3.33  0.000234  ( 0.000025 -0.000003 -0.015296)
 49:    953.85   0.076200  385.08  0.024930  (-0.080555 -0.135796  0.000004)
 50:    981.48   0.001066    5.39  0.000339  ( 0.006656  0.017165 -0.000002)
 51:    991.62   0.000020    0.10  0.000006  ( 0.000024 -0.000025  0.002531)
 52:    996.09   0.000007    0.04  0.000002  ( 0.000006 -0.000015 -0.001482)
 53:   1024.51   0.001153    5.83  0.000351  ( 0.018291  0.004084  0.000004)
 54:   1102.67   0.025213  127.42  0.007135  (-0.034777 -0.076980  0.000002)
 55:   1133.34   0.001526    7.71  0.000420  ( 0.011096  0.017234 -0.000001)
 56:   1141.62   0.004703   23.77  0.001286  (-0.010958  0.034139 -0.000003)
 57:   1167.92   0.001051    5.31  0.000281  (-0.008976 -0.014154  0.000001)
 58:   1190.34   0.021939  110.87  0.005752  (-0.049895 -0.057116  0.000000)
 59:   1201.57   0.004928   24.90  0.001280  ( 0.024842  0.025742  0.000003)
 60:   1220.29   0.005592   28.26  0.001430  (-0.031240 -0.021307 -0.000000)
 61:   1231.86   0.027064  136.77  0.006856  ( 0.044690  0.069705 -0.000002)
 62:   1251.34   0.010733   54.24  0.002677  (-0.024664 -0.045480  0.000003)
 63:   1262.00   0.004965   25.09  0.001228  (-0.022385 -0.026958  0.000000)
 64:   1294.92   0.009896   50.01  0.002385  ( 0.029911  0.038604 -0.000001)
 65:   1327.21   0.037385  188.93  0.008790  (-0.040356 -0.084627  0.000001)
 66:   1332.72   0.002755   13.92  0.000645  ( 0.021997  0.012696  0.000000)
 67:   1360.67   0.026892  135.90  0.006168  (-0.038407 -0.068501  0.000002)
 68:   1373.47   0.001058    5.35  0.000240  (-0.003340 -0.015140  0.000000)
 69:   1393.96   0.000574    2.90  0.000128  ( 0.005735 -0.009778  0.000002)
 70:   1407.76   0.005679   28.70  0.001259  (-0.023354 -0.026711  0.000001)
 71:   1411.64   0.002004   10.13  0.000443  ( 0.010634  0.018164  0.000000)
 72:   1455.71   0.009949   50.28  0.002133  (-0.001693  0.046151 -0.000004)
 73:   1467.74   0.002209   11.16  0.000470  ( 0.020582  0.006786  0.000001)
 74:   1480.31   0.007086   35.81  0.001494  ( 0.034455  0.017513  0.000002)
 75:   1509.61   0.029708  150.13  0.006141  ( 0.001531 -0.078351  0.000004)
 76:   1553.54   0.015610   78.88  0.003136  ( 0.050068  0.025076  0.000001)
 77:   1582.17   0.001059    5.35  0.000209  ( 0.014444 -0.000404  0.000001)
 78:   1600.94   0.005632   28.46  0.001098  (-0.010549 -0.031409 -0.000001)
 79:   1644.56   0.000179    0.91  0.000034  (-0.000314 -0.005821 -0.000001)
 80:   1646.41   0.008842   44.68  0.001676  ( 0.025769  0.031809 -0.000002)
 81:   1706.13   0.009457   47.79  0.001730  ( 0.025500  0.032857 -0.000000)
 82:   2121.60   0.001583    8.00  0.000233  (-0.014183 -0.005627  0.000000)
 83:   2142.36   0.000809    4.09  0.000118  ( 0.010543  0.002583 -0.000002)
 84:   3186.33   0.004339   21.93  0.000425  ( 0.007554  0.019180  0.000000)
 85:   3191.73   0.002498   12.63  0.000244  (-0.006350 -0.014281  0.000000)
 86:   3218.45   0.001101    5.56  0.000107  (-0.008261 -0.006205 -0.000000)
 87:   3232.97   0.000111    0.56  0.000011  (-0.000123 -0.003277  0.000000)
 88:   3238.35   0.000692    3.50  0.000067  (-0.007248 -0.003760 -0.000000)
 89:   3247.53   0.000205    1.03  0.000020  ( 0.000771 -0.004366  0.000000)

--------------------------
THERMOCHEMISTRY AT 10000.00K
--------------------------

Temperature         ... 10000.00 K
Pressure            ... 1.00 atm
Total Mass          ... 294.31 AMU

Throughout the following assumptions are being made:
  (1) The electronic state is orbitally nondegenerate
  (2) There are no thermally accessible electronically excited states
  (3) Hindered rotations indicated by low frequency modes are not
      treated as such but are treated as vibrations and this may
      cause some error
  (4) All equations used are the standard statistical mechanics
      equations for an ideal gas
  (5) All vibrations are strictly harmonic

freq.      48.57  E(vib)   ...      19.80
freq.      89.46  E(vib)   ...      19.74
freq.     128.40  E(vib)   ...      19.69
freq.     173.65  E(vib)   ...      19.63
freq.     222.35  E(vib)   ...      19.56
freq.     271.71  E(vib)   ...      19.49
freq.     275.48  E(vib)   ...      19.48
freq.     305.20  E(vib)   ...      19.44
freq.     338.42  E(vib)   ...      19.39
freq.     345.87  E(vib)   ...      19.38
freq.     354.64  E(vib)   ...      19.37
freq.     367.84  E(vib)   ...      19.35
freq.     393.99  E(vib)   ...      19.31
freq.     399.95  E(vib)   ...      19.31
freq.     425.08  E(vib)   ...      19.27
freq.     429.03  E(vib)   ...      19.27
freq.     462.64  E(vib)   ...      19.22
freq.     465.07  E(vib)   ...      19.22
freq.     487.79  E(vib)   ...      19.18
freq.     500.25  E(vib)   ...      19.17
freq.     511.59  E(vib)   ...      19.15
freq.     513.17  E(vib)   ...      19.15
freq.     527.17  E(vib)   ...      19.13
freq.     536.09  E(vib)   ...      19.12
freq.     555.25  E(vib)   ...      19.09
freq.     593.07  E(vib)   ...      19.04
freq.     597.15  E(vib)   ...      19.03
freq.     660.22  E(vib)   ...      18.94
freq.     669.76  E(vib)   ...      18.93
freq.     678.51  E(vib)   ...      18.92
freq.     704.20  E(vib)   ...      18.88
freq.     724.45  E(vib)   ...      18.85
freq.     745.19  E(vib)   ...      18.83
freq.     784.74  E(vib)   ...      18.77
freq.     806.61  E(vib)   ...      18.74
freq.     819.49  E(vib)   ...      18.72
freq.     833.16  E(vib)   ...      18.71
freq.     846.73  E(vib)   ...      18.69
freq.     848.47  E(vib)   ...      18.68
freq.     857.87  E(vib)   ...      18.67
freq.     864.09  E(vib)   ...      18.66
freq.     877.65  E(vib)   ...      18.64
freq.     953.85  E(vib)   ...      18.54
freq.     981.48  E(vib)   ...      18.50
freq.     991.62  E(vib)   ...      18.49
freq.     996.09  E(vib)   ...      18.48
freq.    1024.51  E(vib)   ...      18.44
freq.    1102.67  E(vib)   ...      18.34
freq.    1133.34  E(vib)   ...      18.30
freq.    1141.62  E(vib)   ...      18.29
freq.    1167.92  E(vib)   ...      18.25
freq.    1190.34  E(vib)   ...      18.22
freq.    1201.57  E(vib)   ...      18.20
freq.    1220.29  E(vib)   ...      18.18
freq.    1231.86  E(vib)   ...      18.16
freq.    1251.34  E(vib)   ...      18.14
freq.    1262.00  E(vib)   ...      18.12
freq.    1294.92  E(vib)   ...      18.08
freq.    1327.21  E(vib)   ...      18.04
freq.    1332.72  E(vib)   ...      18.03
freq.    1360.67  E(vib)   ...      17.99
freq.    1373.47  E(vib)   ...      17.97
freq.    1393.96  E(vib)   ...      17.95
freq.    1407.76  E(vib)   ...      17.93
freq.    1411.64  E(vib)   ...      17.92
freq.    1455.71  E(vib)   ...      17.86
freq.    1467.74  E(vib)   ...      17.85
freq.    1480.31  E(vib)   ...      17.83
freq.    1509.61  E(vib)   ...      17.79
freq.    1553.54  E(vib)   ...      17.73
freq.    1582.17  E(vib)   ...      17.70
freq.    1600.94  E(vib)   ...      17.67
freq.    1644.56  E(vib)   ...      17.61
freq.    1646.41  E(vib)   ...      17.61
freq.    1706.13  E(vib)   ...      17.53
freq.    2121.60  E(vib)   ...      16.99
freq.    2142.36  E(vib)   ...      16.97
freq.    3186.33  E(vib)   ...      15.66
freq.    3191.73  E(vib)   ...      15.66
freq.    3218.45  E(vib)   ...      15.63
freq.    3232.97  E(vib)   ...      15.61
freq.    3238.35  E(vib)   ...      15.60
freq.    3247.53  E(vib)   ...      15.59

------------
INNER ENERGY
------------

The inner energy is: U= E(el) + E(ZPE) + E(vib) + E(rot) + E(trans)
    E(el)   - is the total energy from the electronic structure calculation
              = E(kin-el) + E(nuc-el) + E(el-el) + E(nuc-nuc)
    E(ZPE)  - the the zero temperature vibrational energy from the frequency calculation
    E(vib)  - the the finite temperature correction to E(ZPE) due to population
              of excited vibrational states
    E(rot)  - is the rotational thermal energy
    E(trans)- is the translational thermal energy

Summary of contributions to the inner energy U:
Electronic energy                ...   -917.71804246 Eh
Zero point energy                ...      0.20280091 Eh     127.26 kcal/mol
Thermal vibrational correction   ...      2.43354828 Eh    1527.07 kcal/mol
Thermal rotational correction    ...      0.04750198 Eh      29.81 kcal/mol
Thermal translational correction ...      0.04750198 Eh      29.81 kcal/mol
-----------------------------------------------------------------------
Total thermal energy                   -914.98668931 Eh

Summary of corrections to the electronic energy:
(perhaps to be used in another calculation)
Total thermal correction                  2.52855223 Eh    1586.69 kcal/mol
Non-thermal (ZPE) correction              0.20280091 Eh     127.26 kcal/mol
-----------------------------------------------------------------------
Total correction                          2.73135314 Eh    1713.95 kcal/mol

--------
ENTHALPY
--------

The enthalpy is H = U + kB*T
                kB is Boltzmann's constant
Total free energy                 ...   -914.98668931 Eh
Thermal Enthalpy correction       ...      0.03166893 Eh      19.87 kcal/mol
-----------------------------------------------------------------------
Total Enthalpy                    ...   -914.95502039 Eh

Note: Only C1 symmetry has been detected, increase convergence thresholds
      if your molecule has a higher symmetry. Symmetry factor of 1.0 is
      used for the rotational entropy correction.

Note: Rotational entropy computed according to Herzberg
Infrared and Raman Spectra, Chapter V,1, Van Nostrand Reinhold, 1945
Point Group:  C1, Symmetry Number:   1
Rotational constants in cm-1:     0.011844     0.011755     0.005900

Vibrational entropy computed according to the QRRHO of S. Grimme
Chem.Eur.J. 2012 18 9955

-------
ENTROPY
-------

                             ****ORCA TERMINATED NORMALLY****
TOTAL RUN TIME: 0 days 3 hours 23 minutes 43 seconds 868 msec
