                         Program Version 5.0.4 -  RELEASE  -
|  1> !M062X def2-tzvp PAL4 TIGHTOPT FREQ
|  2>
|  3> %freq
|  4> Temp 298.15,10,20,50,100,6000,8000,10000
|  5> end
|  6>
|  7> %geom
|  8> maxiter 5000
|  9> end
| 10>
| 11>
| 12>
| 13>
| 14>
| 15> * xyz 0 1
| 16>   C   2.45791983499341     -2.80268931379768     -0.00000793519644
| 17>   C   1.28608761308438     -3.49706883370209     -0.00003643606214
| 18>   C   0.03470547919465     -2.82650100714450     -0.00011895547508
| 19>   C   -1.19909611030651     -3.52926406052669     -0.00014738304165
| 20>   C   -2.38727532547159     -2.86387815648029     -0.00022974228995
| 21>   C   -2.43307513493588     -1.44447575303296     -0.00027036473986
| 22>   C   -3.65942351028343     -0.73056692575933     -0.00034869983218
| 23>   C   -3.68143184744779      0.63183680863156     -0.00038756598292
| 24>   C   -2.47654311552349      1.38171086633990     -0.00035715694906
| 25>   C   -2.47435650264592      2.81046534061019     -0.00039831731937
| 26>   C   -1.28561443050281      3.43802142880253     -0.00036151343355
| 27>   C   -0.02057223287027      2.83388218261706     -0.00029010794623
| 28>   C   1.21086686736911      3.53893902602452     -0.00025402239824
| 29>   C   2.39489324957599      2.86551829309080     -0.00018393811888
| 30>   C   2.43517090494280      1.44582754720977     -0.00014049013964
| 31>   C   3.65975900430544      0.72697243056351     -0.00006992784603
| 32>   C   3.67546036802878     -0.63516446298208     -0.00002698908555
| 33>   C   2.46811813995863     -1.38295180399054     -0.00005240219282
| 34>   C   1.24061543792698     -0.69496199420878     -0.00012711748511
| 35>   C   1.22474219035332      0.72698621586077     -0.00017741356338
| 36>   C   -0.01566516709535      1.42103164152461     -0.00024506128700
| 37>   C   -1.24356348643455      0.69923344199718     -0.00028346088976
| 38>   C   -1.22400277498297     -0.72338676000015     -0.00023734960533
| 39>   C   0.01693487392421     -1.41913103104816     -0.00016297130775
| 40>   H   3.40501735040542     -3.32906588787472      0.00005627444163
| 41>   H   1.29296308352502     -4.58060438188898      0.00000142672494
| 42>   H   -1.17896310310274     -4.61257131284734     -0.00011513591155
| 43>   H   -3.32129405982821     -3.41317602901623     -0.00025227227744
| 44>   H   -4.58586789409211     -1.29266910376159     -0.00037146429946
| 45>   H   -3.41518424261775      3.34878172120577     -0.00045725814046
| 46>   H   1.18854626437870      4.62103847897618     -0.00028959104089
| 47>   H   3.33130215861300      3.41052642430950     -0.00015763965944
| 48>   H   4.58800492413600      1.28586263822177     -0.00004835142171
| 49>   H   4.61660270482137     -1.17213723898180      0.00002811587814
| 50>   **                         ****END OF INPUT****
 Total Charge           Charge          ....    0
 Multiplicity           Mult            ....    1
 Number of Electrons    NEL             ....  154
FINAL SINGLE POINT ENERGY      -920.393178287147
FINAL SINGLE POINT ENERGY      -920.402311967846
FINAL SINGLE POINT ENERGY      -920.407429105240
FINAL SINGLE POINT ENERGY      -920.408259316607
FINAL SINGLE POINT ENERGY      -920.408646325876
FINAL SINGLE POINT ENERGY      -920.408791634816
FINAL SINGLE POINT ENERGY      -920.408879441705
FINAL SINGLE POINT ENERGY      -920.408911842842
FINAL SINGLE POINT ENERGY      -920.408938216268
FINAL SINGLE POINT ENERGY      -920.408956995822
FINAL SINGLE POINT ENERGY      -920.408965985046
FINAL SINGLE POINT ENERGY      -920.408967989736
FINAL SINGLE POINT ENERGY      -920.408968484781
                    ***********************HURRAY********************

CARTESIAN COORDINATES (ANGSTROEM)
---------------------------------
  C      2.455841   -2.796317   -0.000010
  C      1.282507   -3.493186   -0.000044
  C      0.034125   -2.825195   -0.000117
  C     -1.203841   -3.530352   -0.000147
  C     -2.391604   -2.871622   -0.000225
  C     -2.446021   -1.446124   -0.000268
  C     -3.687160   -0.745451   -0.000344
  C     -3.591851    0.608717   -0.000382
  C     -2.488991    1.320287   -0.000355
  C     -2.484414    2.909080   -0.000404
  C     -1.292389    3.400534   -0.000366
  C     -0.004156    2.845034   -0.000289
  C      1.219399    3.545162   -0.000253
  C      2.404588    2.863749   -0.000180
  C      2.439467    1.450505   -0.000139
  C      3.665419    0.726228   -0.000066
  C      3.675457   -0.632444   -0.000027
  C      2.463400   -1.380120   -0.000057
  C      1.235902   -0.691800   -0.000131
  C      1.225784    0.733910   -0.000175
  C     -0.011704    1.429488   -0.000248
  C     -1.227768    0.695267   -0.000280
  C     -1.229257   -0.724343   -0.000236
  C      0.014465   -1.418990   -0.000163
  H      3.403322   -3.321764    0.000049
  H      1.291371   -4.576679   -0.000004
  H     -1.180654   -4.613715   -0.000114
  H     -3.324250   -3.422977   -0.000247
  H     -4.614089   -1.308455   -0.000371
  H     -3.456494    3.364421   -0.000475
  H      1.199243    4.626466   -0.000287
  H      3.341648    3.407235   -0.000153
  H      4.594399    1.283622   -0.000043
  H      4.614087   -1.173800    0.000028

 Multiplicity           Mult            ....    1
 Number of Electrons    NEL             ....  154
 Basis Dimension        Dim             ....  804

ORBITAL ENERGIES
----------------

  NO   OCC          E(Eh)            E(eV)
   0   2.0000     -10.580072      -287.8984
   1   2.0000     -10.578877      -287.8659
   2   2.0000     -10.574895      -287.7575
   3   2.0000     -10.574627      -287.7502
   4   2.0000     -10.574243      -287.7398
   5   2.0000     -10.570351      -287.6339
   6   2.0000     -10.568567      -287.5853
   7   2.0000     -10.565277      -287.4958
   8   2.0000     -10.563266      -287.4411
   9   2.0000     -10.563030      -287.4346
  10   2.0000     -10.561940      -287.4050
  11   2.0000     -10.561717      -287.3989
  12   2.0000     -10.561120      -287.3827
  13   2.0000     -10.559898      -287.3494
  14   2.0000     -10.559538      -287.3396
  15   2.0000     -10.559237      -287.3314
  16   2.0000     -10.557344      -287.2799
  17   2.0000     -10.555328      -287.2251
  18   2.0000     -10.554162      -287.1933
  19   2.0000     -10.552661      -287.1525
  20   2.0000     -10.551720      -287.1269
  21   2.0000     -10.551643      -287.1248
  22   2.0000     -10.550728      -287.0999
  23   2.0000     -10.543431      -286.9013
  24   2.0000      -1.028865       -27.9968
  25   2.0000      -0.989365       -26.9220
  26   2.0000      -0.987647       -26.8752
  27   2.0000      -0.937993       -25.5241
  28   2.0000      -0.935332       -25.4517
  29   2.0000      -0.917158       -24.9571
  30   2.0000      -0.885728       -24.1019
  31   2.0000      -0.867058       -23.5938
  32   2.0000      -0.850810       -23.1517
  33   2.0000      -0.847677       -23.0665
  34   2.0000      -0.815590       -22.1933
  35   2.0000      -0.812758       -22.1163
  36   2.0000      -0.735349       -20.0099
  37   2.0000      -0.732733       -19.9387
  38   2.0000      -0.726677       -19.7739
  39   2.0000      -0.719163       -19.5694
  40   2.0000      -0.705636       -19.2013
  41   2.0000      -0.650895       -17.7118
  42   2.0000      -0.639974       -17.4146
  43   2.0000      -0.627532       -17.0760
  44   2.0000      -0.610996       -16.6260
  45   2.0000      -0.603377       -16.4187
  46   2.0000      -0.599518       -16.3137
  47   2.0000      -0.553523       -15.0621
  48   2.0000      -0.549919       -14.9641
  49   2.0000      -0.544846       -14.8260
  50   2.0000      -0.538222       -14.6458
  51   2.0000      -0.527475       -14.3533
  52   2.0000      -0.518015       -14.0959
  53   2.0000      -0.516151       -14.0452
  54   2.0000      -0.503954       -13.7133
  55   2.0000      -0.496058       -13.4984
  56   2.0000      -0.481592       -13.1048
  57   2.0000      -0.477838       -13.0026
  58   2.0000      -0.472526       -12.8581
  59   2.0000      -0.471238       -12.8230
  60   2.0000      -0.469208       -12.7678
  61   2.0000      -0.462704       -12.5908
  62   2.0000      -0.443199       -12.0600
  63   2.0000      -0.433539       -11.7972
  64   2.0000      -0.430994       -11.7279
  65   2.0000      -0.410794       -11.1783
  66   2.0000      -0.406518       -11.0619
  67   2.0000      -0.393704       -10.7132
  68   2.0000      -0.389735       -10.6052
  69   2.0000      -0.387815       -10.5530
  70   2.0000      -0.343234        -9.3399
  71   2.0000      -0.330771        -9.0007
  72   2.0000      -0.318256        -8.6602
  73   2.0000      -0.314546        -8.5592
  74   2.0000      -0.264369        -7.1939
  75   2.0000      -0.254189        -6.9168
  76   2.0000      -0.233735        -6.3602
  77   0.0000      -0.110897        -3.0177
  78   0.0000      -0.050395        -1.3713
  79   0.0000      -0.035517        -0.9665
  80   0.0000      -0.000680        -0.0185
  81   0.0000       0.003552         0.0966

MULLIKEN ATOMIC CHARGES
-----------------------
   0 C :   -0.186225
   1 C :   -0.175172
   2 C :    0.090142
   3 C :   -0.191826
   4 C :   -0.176991
   5 C :    0.111494
   6 C :   -0.281550
   7 C :   -0.086870
   8 C :    0.127218
   9 C :   -0.315783
  10 C :    0.091504
  11 C :    0.029306
  12 C :   -0.221335
  13 C :   -0.160391
  14 C :    0.089195
  15 C :   -0.188302
  16 C :   -0.173896
  17 C :    0.087018
  18 C :    0.023962
  19 C :    0.045877
  20 C :    0.055549
  21 C :    0.008584
  22 C :   -0.029989
  23 C :    0.015144
  24 H :    0.134954
  25 H :    0.134685
  26 H :    0.133940
  27 H :    0.136309
  28 H :    0.136384
  29 H :    0.183838
  30 H :    0.143735
  31 H :    0.137724
  32 H :    0.135909
  33 H :    0.135860
Sum of atomic charges:   -0.0000000

LOEWDIN ATOMIC CHARGES
----------------------
   0 C :   -0.100425
   1 C :   -0.097377
   2 C :   -0.094059
   3 C :   -0.099837
   4 C :   -0.098251
   5 C :   -0.081655
   6 C :   -0.117905
   7 C :   -0.018454
   8 C :   -0.096687
   9 C :   -0.059941
  10 C :    0.038022
  11 C :   -0.108991
  12 C :   -0.092827
  13 C :   -0.093603
  14 C :   -0.090555
  15 C :   -0.099029
  16 C :   -0.095040
  17 C :   -0.092788
  18 C :   -0.003440
  19 C :   -0.001347
  20 C :    0.004238
  21 C :   -0.010639
  22 C :   -0.001750
  23 C :   -0.005243
  24 H :    0.150301
  25 H :    0.150593
  26 H :    0.150553
  27 H :    0.150988
  28 H :    0.147432
  29 H :    0.160115
  30 H :    0.153760
  31 H :    0.151990
  32 H :    0.150790
  33 H :    0.151062

  Mayer bond orders larger than 0.100000
B(  0-C ,  1-C ) :   1.6175 B(  0-C , 17-C ) :   1.2607 B(  0-C , 24-H ) :   0.9324
B(  1-C ,  2-C ) :   1.2615 B(  1-C , 25-H ) :   0.9323 B(  2-C ,  3-C ) :   1.2156
B(  2-C , 23-C ) :   1.3143 B(  3-C ,  4-C ) :   1.6749 B(  3-C , 26-H ) :   0.9336
B(  4-C ,  5-C ) :   1.2182 B(  4-C , 27-H ) :   0.9359 B(  5-C ,  6-C ) :   1.1691
B(  5-C , 22-C ) :   1.2826 B(  6-C ,  7-C ) :   1.6491 B(  6-C , 28-H ) :   0.9575
B(  7-C ,  8-C ) :   1.5515 B(  7-C , 10-C ) :   0.5159 B(  8-C ,  9-C ) :   0.7249
B(  8-C , 21-C ) :   1.2373 B(  9-C , 10-C ) :   1.9439 B(  9-C , 29-H ) :   0.9590
B( 10-C , 11-C ) :   1.1843 B( 11-C , 12-C ) :   1.2903 B( 11-C , 20-C ) :   1.2789
B( 12-C , 13-C ) :   1.5628 B( 12-C , 30-H ) :   0.9453 B( 13-C , 14-C ) :   1.2700
B( 13-C , 31-H ) :   0.9369 B( 14-C , 15-C ) :   1.2225 B( 14-C , 19-C ) :   1.2984
B( 15-C , 16-C ) :   1.6652 B( 15-C , 32-H ) :   0.9284 B( 16-C , 17-C ) :   1.2297
B( 16-C , 33-H ) :   0.9280 B( 17-C , 18-C ) :   1.3112 B( 18-C , 19-C ) :   1.1524
B( 18-C , 23-C ) :   1.1711 B( 19-C , 20-C ) :   1.1876 B( 20-C , 21-C ) :   1.1681
B( 21-C , 22-C ) :   1.1970 B( 22-C , 23-C ) :   1.1475

FINAL SINGLE POINT ENERGY      -920.408968558074

DIPOLE MOMENT
-------------
                                X             Y             Z
Electronic contribution:     -4.47465       4.82218      -0.00034
Nuclear contribution   :      5.29814      -5.18867       0.00039
                        -----------------------------------------
Total Dipole Moment    :      0.82349      -0.36649       0.00005
                        -----------------------------------------
Magnitude (a.u.)       :      0.90136
Magnitude (Debye)      :      2.29108

VIBRATIONAL FREQUENCIES
-----------------------

Scaling factor for frequencies =  1.000000000  (already applied!)

   0:         0.00 cm**-1
   1:         0.00 cm**-1
   2:         0.00 cm**-1
   3:         0.00 cm**-1
   4:         0.00 cm**-1
   5:         0.00 cm**-1
   6:        79.89 cm**-1
   7:        90.63 cm**-1
   8:       117.08 cm**-1
   9:       162.43 cm**-1
  10:       224.45 cm**-1
  11:       248.06 cm**-1
  12:       268.14 cm**-1
  13:       306.09 cm**-1
  14:       307.70 cm**-1
  15:       309.43 cm**-1
  16:       359.03 cm**-1
  17:       373.19 cm**-1
  18:       375.82 cm**-1
  19:       392.77 cm**-1
  20:       419.94 cm**-1
  21:       444.42 cm**-1
  22:       450.27 cm**-1
  23:       489.11 cm**-1
  24:       494.11 cm**-1
  25:       504.90 cm**-1
  26:       506.74 cm**-1
  27:       527.02 cm**-1
  28:       551.91 cm**-1
  29:       575.93 cm**-1
  30:       580.82 cm**-1
  31:       596.79 cm**-1
  32:       627.52 cm**-1
  33:       652.39 cm**-1
  34:       665.50 cm**-1
  35:       681.61 cm**-1
  36:       682.44 cm**-1
  37:       691.21 cm**-1
  38:       732.40 cm**-1
  39:       758.70 cm**-1
  40:       773.36 cm**-1
  41:       790.73 cm**-1
  42:       799.01 cm**-1
  43:       837.28 cm**-1
  44:       837.30 cm**-1
  45:       843.54 cm**-1
  46:       867.19 cm**-1
  47:       868.92 cm**-1
  48:       884.10 cm**-1
  49:       902.31 cm**-1
  50:       923.46 cm**-1
  51:       945.17 cm**-1
  52:       981.47 cm**-1
  53:       988.47 cm**-1
  54:       995.75 cm**-1
  55:       999.85 cm**-1
  56:      1014.15 cm**-1
  57:      1029.32 cm**-1
  58:      1095.21 cm**-1
  59:      1142.93 cm**-1
  60:      1153.94 cm**-1
  61:      1171.79 cm**-1
  62:      1179.18 cm**-1
  63:      1197.30 cm**-1
  64:      1209.17 cm**-1
  65:      1224.86 cm**-1
  66:      1247.53 cm**-1
  67:      1252.23 cm**-1
  68:      1253.77 cm**-1
  69:      1276.19 cm**-1
  70:      1309.73 cm**-1
  71:      1331.55 cm**-1
  72:      1342.06 cm**-1
  73:      1373.03 cm**-1
  74:      1408.02 cm**-1
  75:      1427.01 cm**-1
  76:      1431.36 cm**-1
  77:      1445.70 cm**-1
  78:      1457.60 cm**-1
  79:      1463.23 cm**-1
  80:      1492.31 cm**-1
  81:      1500.15 cm**-1
  82:      1530.84 cm**-1
  83:      1554.68 cm**-1
  84:      1570.92 cm**-1
  85:      1589.50 cm**-1
  86:      1601.02 cm**-1
  87:      1672.85 cm**-1
  88:      1686.94 cm**-1
  89:      1692.99 cm**-1
  90:      1708.49 cm**-1
  91:      1783.82 cm**-1
  92:      3189.61 cm**-1
  93:      3202.72 cm**-1
  94:      3203.69 cm**-1
  95:      3204.22 cm**-1
  96:      3212.42 cm**-1
  97:      3219.31 cm**-1
  98:      3220.15 cm**-1
  99:      3221.43 cm**-1
 100:      3236.35 cm**-1
 101:      3325.29 cm**-1

IR SPECTRUM
-----------

 Mode   freq       eps      Int      T**2         TX        TY        TZ
       cm**-1   L/(mol*cm) km/mol    a.u.
----------------------------------------------------------------------------
  6:     79.89   0.000000    0.00  0.000000  ( 0.000002  0.000024  0.000559)
  7:     90.63   0.000022    0.11  0.000076  ( 0.000006  0.000009 -0.008728)
  8:    117.08   0.000639    3.23  0.001702  (-0.000019 -0.000004  0.041254)
  9:    162.43   0.000202    1.02  0.000388  ( 0.000009  0.000007 -0.019709)
 10:    224.45   0.000080    0.40  0.000111  (-0.000018 -0.000012  0.010532)
 11:    248.06   0.000492    2.48  0.000618  (-0.000048 -0.000001  0.024866)
 12:    268.14   0.000657    3.32  0.000765  ( 0.000000 -0.000014  0.027654)
 13:    306.09   0.000093    0.47  0.000095  ( 0.000001  0.000008 -0.009732)
 14:    307.70   0.000234    1.18  0.000237  (-0.000108 -0.000135  0.015407)
 15:    309.43   0.071348  360.56  0.071955  ( 0.165824  0.210849  0.000012)
 16:    359.03   0.002883   14.57  0.002506  ( 0.043928  0.024004 -0.000000)
 17:    373.19   0.000897    4.53  0.000750  (-0.024978 -0.011238  0.000021)
 18:    375.82   0.003430   17.33  0.002848  ( 0.000002  0.000024 -0.053368)
 19:    392.77   0.000115    0.58  0.000091  ( 0.004682 -0.008327 -0.000000)
 20:    419.94   0.044105  222.89  0.032775  (-0.121293 -0.134400 -0.000001)
 21:    444.42   0.007412   37.46  0.005205  (-0.030319 -0.065462  0.000004)
 22:    450.27   0.000086    0.44  0.000060  ( 0.000013  0.000068  0.007729)
 23:    489.11   0.004036   20.39  0.002575  (-0.031427 -0.039840 -0.000004)
 24:    494.11   0.003808   19.24  0.002405  (-0.033739 -0.035591  0.000000)
 25:    504.90   0.001844    9.32  0.001140  ( 0.011681  0.031672  0.000001)
 26:    506.74   0.001489    7.53  0.000917  (-0.000019 -0.000013  0.030282)
 27:    527.02   0.001937    9.79  0.001147  (-0.000002 -0.000023 -0.033863)
 28:    551.91   0.000140    0.71  0.000079  (-0.000003  0.000031 -0.008891)
 29:    575.93   0.001579    7.98  0.000856  (-0.000025 -0.000011  0.029251)
 30:    580.82   0.005385   27.21  0.002893  (-0.043784 -0.031246 -0.000000)
 31:    596.79   0.005867   29.65  0.003068  (-0.029891 -0.046632  0.000003)
 32:    627.52   0.000288    1.46  0.000143  (-0.000009 -0.000004 -0.011966)
 33:    652.39   0.000994    5.02  0.000475  (-0.018865 -0.010937 -0.000003)
 34:    665.50   0.000109    0.55  0.000051  ( 0.000005 -0.000001  0.007146)
 35:    681.61   0.001490    7.53  0.000682  ( 0.018483  0.018453 -0.000016)
 36:    682.44   0.000186    0.94  0.000085  ( 0.000029  0.000046  0.009215)
 37:    691.21   0.000936    4.73  0.000422  (-0.018951 -0.007958 -0.000000)
 38:    732.40   0.003678   18.59  0.001567  ( 0.000010  0.000002 -0.039589)
 39:    758.70   0.001912    9.66  0.000786  (-0.027413  0.005900 -0.000003)
 40:    773.36   0.003344   16.90  0.001350  ( 0.030504  0.020471  0.000005)
 41:    790.73   0.000009    0.04  0.000003  (-0.000019  0.000006  0.001853)
 42:    799.01   0.001689    8.54  0.000660  (-0.000009  0.000002 -0.025685)
 43:    837.28   0.000541    2.74  0.000202  ( 0.001161  0.014126  0.000931)
 44:    837.30   0.000281    1.42  0.000105  (-0.000114 -0.001316  0.010150)
 45:    843.54   0.000505    2.55  0.000187  ( 0.000027  0.000017  0.013670)
 46:    867.19   0.000075    0.38  0.000027  (-0.000036 -0.000026  0.005190)
 47:    868.92   0.003748   18.94  0.001346  ( 0.014586  0.033666  0.000005)
 48:    884.10   0.013052   65.96  0.004607  ( 0.000013 -0.000005  0.067875)
 49:    902.31   0.007718   39.01  0.002669  (-0.000053 -0.000012  0.051667)
 50:    923.46   0.000933    4.71  0.000315  ( 0.015839  0.008020 -0.000006)
 51:    945.17   0.000029    0.15  0.000010  ( 0.000035 -0.000001  0.003104)
 52:    981.47   0.000025    0.13  0.000008  (-0.000001 -0.000027 -0.002809)
 53:    988.47   0.000001    0.00  0.000000  ( 0.000016 -0.000011  0.000422)
 54:    995.75   0.000004    0.02  0.000001  (-0.000018 -0.000024  0.001110)
 55:    999.85   0.000009    0.04  0.000003  (-0.000004 -0.000032  0.001631)
 56:   1014.15   0.000719    3.63  0.000221  (-0.009621 -0.011339  0.000001)
 57:   1029.32   0.005640   28.50  0.001710  (-0.027953 -0.030472  0.000001)
 58:   1095.21   0.001120    5.66  0.000319  ( 0.007648  0.016148 -0.000001)
 59:   1142.93   0.002506   12.66  0.000684  (-0.014456 -0.021800  0.000000)
 60:   1153.94   0.000155    0.79  0.000042  ( 0.000916  0.006417 -0.000000)
 61:   1171.79   0.000330    1.67  0.000088  (-0.002387  0.009072 -0.000000)
 62:   1179.18   0.000589    2.98  0.000156  (-0.002249  0.012279 -0.000000)
 63:   1197.30   0.003913   19.77  0.001020  ( 0.030270  0.010175  0.000001)
 64:   1209.17   0.002914   14.72  0.000752  (-0.017127 -0.021416  0.000000)
 65:   1224.86   0.000618    3.13  0.000158  (-0.012249 -0.002747 -0.000000)
 66:   1247.53   0.000921    4.65  0.000230  (-0.015175  0.000341 -0.000001)
 67:   1252.23   0.001111    5.61  0.000277  (-0.012393 -0.011102 -0.000000)
 68:   1253.77   0.001068    5.39  0.000266  ( 0.009786  0.013036  0.000000)
 69:   1276.19   0.000370    1.87  0.000090  (-0.005581 -0.007699  0.000000)
 70:   1309.73   0.000431    2.18  0.000103  (-0.001589  0.010008 -0.000001)
 71:   1331.55   0.008570   43.31  0.002009  (-0.018726 -0.040717 -0.000000)
 72:   1342.06   0.000423    2.14  0.000098  ( 0.000578  0.009896  0.000001)
 73:   1373.03   0.006212   31.39  0.001412  ( 0.025200  0.027871 -0.000000)
 74:   1408.02   0.000089    0.45  0.000020  ( 0.002616  0.003586 -0.000000)
 75:   1427.01   0.001383    6.99  0.000302  (-0.014200 -0.010041 -0.000000)
 76:   1431.36   0.006552   33.11  0.001429  (-0.026121 -0.027317 -0.000001)
 77:   1445.70   0.001330    6.72  0.000287  ( 0.010929  0.012950 -0.000000)
 78:   1457.60   0.000112    0.56  0.000024  (-0.003831 -0.003042 -0.000000)
 79:   1463.23   0.001234    6.24  0.000263  (-0.014959 -0.006280  0.000000)
 80:   1492.31   0.005031   25.42  0.001052  (-0.025035 -0.020622 -0.000000)
 81:   1500.15   0.000936    4.73  0.000195  ( 0.006070 -0.012562  0.000001)
 82:   1530.84   0.006838   34.56  0.001394  (-0.019999 -0.031527 -0.000000)
 83:   1554.68   0.001733    8.76  0.000348  (-0.015132  0.010907 -0.000001)
 84:   1570.92   0.002292   11.58  0.000455  (-0.006549 -0.020308  0.000001)
 85:   1589.50   0.000780    3.94  0.000153  ( 0.000986 -0.012339  0.000000)
 86:   1601.02   0.002586   13.07  0.000504  ( 0.019081  0.011831  0.000001)
 87:   1672.85   0.001156    5.84  0.000216  ( 0.014022  0.004374  0.000001)
 88:   1686.94   0.001852    9.36  0.000343  ( 0.003074  0.018251 -0.000001)
 89:   1692.99   0.001046    5.29  0.000193  ( 0.012124  0.006769  0.000001)
 90:   1708.49   0.004806   24.29  0.000878  (-0.016543 -0.024582 -0.000000)
 91:   1783.82   0.019886  100.50  0.003479  ( 0.019304  0.055733 -0.000000)
 92:   3189.61   0.005769   29.15  0.000564  (-0.014628 -0.018719  0.000000)
 93:   3202.72   0.000077    0.39  0.000007  (-0.002683 -0.000548  0.000000)
 94:   3203.69   0.000141    0.71  0.000014  ( 0.000961  0.003582 -0.000000)
 95:   3204.22   0.000066    0.33  0.000006  (-0.002518 -0.000299 -0.000000)
 96:   3212.42   0.000331    1.67  0.000032  ( 0.004095  0.003923  0.000000)
 97:   3219.31   0.000998    5.04  0.000097  ( 0.009481  0.002623  0.000000)
 98:   3220.15   0.003482   17.60  0.000337  ( 0.003741  0.017984 -0.000000)
 99:   3221.43   0.002652   13.40  0.000257  ( 0.015627 -0.003572  0.000001)
100:   3236.35   0.000893    4.51  0.000086  (-0.006166 -0.006936 -0.000000)
101:   3325.29   0.010441   52.77  0.000980  ( 0.028010 -0.013975  0.000002)

--------------------------
THERMOCHEMISTRY AT 10000.00K
--------------------------

Temperature         ... 10000.00 K
Pressure            ... 1.00 atm
Total Mass          ... 298.34 AMU

Throughout the following assumptions are being made:
  (1) The electronic state is orbitally nondegenerate
  (2) There are no thermally accessible electronically excited states
  (3) Hindered rotations indicated by low frequency modes are not
      treated as such but are treated as vibrations and this may
      cause some error
  (4) All equations used are the standard statistical mechanics
      equations for an ideal gas
  (5) All vibrations are strictly harmonic

freq.      79.89  E(vib)   ...      19.76
freq.      90.63  E(vib)   ...      19.74
freq.     117.08  E(vib)   ...      19.71
freq.     162.43  E(vib)   ...      19.64
freq.     224.45  E(vib)   ...      19.55
freq.     248.06  E(vib)   ...      19.52
freq.     268.14  E(vib)   ...      19.49
freq.     306.09  E(vib)   ...      19.44
freq.     307.70  E(vib)   ...      19.44
freq.     309.43  E(vib)   ...      19.43
freq.     359.03  E(vib)   ...      19.36
freq.     373.19  E(vib)   ...      19.34
freq.     375.82  E(vib)   ...      19.34
freq.     392.77  E(vib)   ...      19.32
freq.     419.94  E(vib)   ...      19.28
freq.     444.42  E(vib)   ...      19.24
freq.     450.27  E(vib)   ...      19.24
freq.     489.11  E(vib)   ...      19.18
freq.     494.11  E(vib)   ...      19.17
freq.     504.90  E(vib)   ...      19.16
freq.     506.74  E(vib)   ...      19.16
freq.     527.02  E(vib)   ...      19.13
freq.     551.91  E(vib)   ...      19.09
freq.     575.93  E(vib)   ...      19.06
freq.     580.82  E(vib)   ...      19.05
freq.     596.79  E(vib)   ...      19.03
freq.     627.52  E(vib)   ...      18.99
freq.     652.39  E(vib)   ...      18.95
freq.     665.50  E(vib)   ...      18.94
freq.     681.61  E(vib)   ...      18.91
freq.     682.44  E(vib)   ...      18.91
freq.     691.21  E(vib)   ...      18.90
freq.     732.40  E(vib)   ...      18.84
freq.     758.70  E(vib)   ...      18.81
freq.     773.36  E(vib)   ...      18.79
freq.     790.73  E(vib)   ...      18.76
freq.     799.01  E(vib)   ...      18.75
freq.     837.28  E(vib)   ...      18.70
freq.     837.30  E(vib)   ...      18.70
freq.     843.54  E(vib)   ...      18.69
freq.     867.19  E(vib)   ...      18.66
freq.     868.92  E(vib)   ...      18.66
freq.     884.10  E(vib)   ...      18.64
freq.     902.31  E(vib)   ...      18.61
freq.     923.46  E(vib)   ...      18.58
freq.     945.17  E(vib)   ...      18.55
freq.     981.47  E(vib)   ...      18.50
freq.     988.47  E(vib)   ...      18.49
freq.     995.75  E(vib)   ...      18.48
freq.     999.85  E(vib)   ...      18.48
freq.    1014.15  E(vib)   ...      18.46
freq.    1029.32  E(vib)   ...      18.44
freq.    1095.21  E(vib)   ...      18.35
freq.    1142.93  E(vib)   ...      18.28
freq.    1153.94  E(vib)   ...      18.27
freq.    1171.79  E(vib)   ...      18.24
freq.    1179.18  E(vib)   ...      18.23
freq.    1197.30  E(vib)   ...      18.21
freq.    1209.17  E(vib)   ...      18.19
freq.    1224.86  E(vib)   ...      18.17
freq.    1247.53  E(vib)   ...      18.14
freq.    1252.23  E(vib)   ...      18.14
freq.    1253.77  E(vib)   ...      18.13
freq.    1276.19  E(vib)   ...      18.10
freq.    1309.73  E(vib)   ...      18.06
freq.    1331.55  E(vib)   ...      18.03
freq.    1342.06  E(vib)   ...      18.02
freq.    1373.03  E(vib)   ...      17.97
freq.    1408.02  E(vib)   ...      17.93
freq.    1427.01  E(vib)   ...      17.90
freq.    1431.36  E(vib)   ...      17.90
freq.    1445.70  E(vib)   ...      17.88
freq.    1457.60  E(vib)   ...      17.86
freq.    1463.23  E(vib)   ...      17.85
freq.    1492.31  E(vib)   ...      17.82
freq.    1500.15  E(vib)   ...      17.81
freq.    1530.84  E(vib)   ...      17.76
freq.    1554.68  E(vib)   ...      17.73
freq.    1570.92  E(vib)   ...      17.71
freq.    1589.50  E(vib)   ...      17.69
freq.    1601.02  E(vib)   ...      17.67
freq.    1672.85  E(vib)   ...      17.58
freq.    1686.94  E(vib)   ...      17.56
freq.    1692.99  E(vib)   ...      17.55
freq.    1708.49  E(vib)   ...      17.53
freq.    1783.82  E(vib)   ...      17.43
freq.    3189.61  E(vib)   ...      15.66
freq.    3202.72  E(vib)   ...      15.64
freq.    3203.69  E(vib)   ...      15.64
freq.    3204.22  E(vib)   ...      15.64
freq.    3212.42  E(vib)   ...      15.63
freq.    3219.31  E(vib)   ...      15.62
freq.    3220.15  E(vib)   ...      15.62
freq.    3221.43  E(vib)   ...      15.62
freq.    3236.35  E(vib)   ...      15.60
freq.    3325.29  E(vib)   ...      15.50

------------
INNER ENERGY
------------

The inner energy is: U= E(el) + E(ZPE) + E(vib) + E(rot) + E(trans)
    E(el)   - is the total energy from the electronic structure calculation
              = E(kin-el) + E(nuc-el) + E(el-el) + E(nuc-nuc)
    E(ZPE)  - the the zero temperature vibrational energy from the frequency calculation
    E(vib)  - the the finite temperature correction to E(ZPE) due to population
              of excited vibrational states
    E(rot)  - is the rotational thermal energy
    E(trans)- is the translational thermal energy

Summary of contributions to the inner energy U:
Electronic energy                ...   -920.40896856 Eh
Zero point energy                ...      0.25411353 Eh     159.46 kcal/mol
Thermal vibrational correction   ...      2.79674037 Eh    1754.98 kcal/mol
Thermal rotational correction    ...      0.04750198 Eh      29.81 kcal/mol
Thermal translational correction ...      0.04750198 Eh      29.81 kcal/mol
-----------------------------------------------------------------------
Total thermal energy                   -917.26311070 Eh

Summary of corrections to the electronic energy:
(perhaps to be used in another calculation)
Total thermal correction                  2.89174433 Eh    1814.59 kcal/mol
Non-thermal (ZPE) correction              0.25411353 Eh     159.46 kcal/mol
-----------------------------------------------------------------------
Total correction                          3.14585785 Eh    1974.05 kcal/mol

--------
ENTHALPY
--------

The enthalpy is H = U + kB*T
                kB is Boltzmann's constant
Total free energy                 ...   -917.26311070 Eh
Thermal Enthalpy correction       ...      0.03166893 Eh      19.87 kcal/mol
-----------------------------------------------------------------------
Total Enthalpy                    ...   -917.23144178 Eh

Note: Rotational entropy computed according to Herzberg
Infrared and Raman Spectra, Chapter V,1, Van Nostrand Reinhold, 1945
Point Group:  Cs, Symmetry Number:   1
Rotational constants in cm-1:     0.011551     0.011262     0.005702

                             ****ORCA TERMINATED NORMALLY****
TOTAL RUN TIME: 0 days 8 hours 15 minutes 17 seconds 449 msec
