                         Program Version 5.0.4 -  RELEASE  -
|  1> !b3lyp 6-311g** d4 pal4 opt freq tightscf
|  2>
|  3>
|  4>
|  5>
|  6> * xyz 0 1
|  7>   C   2.45814372841442     -2.79762432152276     -0.00000935721672
|  8>   C   1.28165018622583     -3.49669397992260     -0.00004049267120
|  9>   C   0.03017414605882     -2.82714149744190     -0.00011725249806
| 10>   C   -1.20273144639335     -3.53456352749896     -0.00015100845725
| 11>   C   -2.39665659376726     -2.87062715688405     -0.00022452639696
| 12>   C   -2.45065899847611     -1.44934467917827     -0.00027014660337
| 13>   C   -3.68551110480012     -0.75377167730970     -0.00034622466913
| 14>   C   -3.73325549081493      0.61639404095496     -0.00038921221751
| 15>   C   -2.54008810516095      1.36783854991550     -0.00035838623256
| 16>   C   -2.35700598835419      2.76186463601592     -0.00039242925878
| 17>   C   -1.29898566663472      3.39044148429585     -0.00036424354529
| 18>   C   0.01285162348956      2.88477145248367     -0.00029057161392
| 19>   C   1.24333710587108      3.57347913638436     -0.00025777864094
| 20>   C   2.42393196182503      2.87645730502049     -0.00018480355988
| 21>   C   2.44443589018069      1.45936607197506     -0.00014130938598
| 22>   C   3.66686782017425      0.73229006448145     -0.00006535708886
| 23>   C   3.67916229317430     -0.63373272158623     -0.00002327412121
| 24>   C   2.46838135174265     -1.37836527496951     -0.00005337391096
| 25>   C   1.23270737339771     -0.68306190907567     -0.00013045198616
| 26>   C   1.21729323638278      0.74242395579856     -0.00017161728796
| 27>   C   -0.02145939069642      1.44377354856862     -0.00025024117537
| 28>   C   -1.25797197801671      0.70904683508363     -0.00028058686329
| 29>   C   -1.23428793656536     -0.71428267284432     -0.00023902186922
| 30>   C   0.01033306611500     -1.40943065654563     -0.00016036632085
| 31>   H   3.40688295147393     -3.32367661827808      0.00005001285726
| 32>   H   1.29004685144018     -4.58147322693060     -0.00000608347828
| 33>   H   -1.17866080904164     -4.61905737503119     -0.00011665379895
| 34>   H   -3.33031471786782     -3.42286952531542     -0.00024960397183
| 35>   H   -4.60465101107322     -1.32966851088993     -0.00037039170930
| 36>   H   -4.68078759715506      1.14070930111139     -0.00044817588434
| 37>   H   1.23586896821948      4.65637764844833     -0.00029079466514
| 38>   H   3.36918037509646      3.40846526495057     -0.00015974848227
| 39>   H   4.59835470973784      1.28815351006007     -0.00004147702617
| 40>   H   4.62030049056291     -1.17312384933370      0.00003542127604
| 41> **                         ****END OF INPUT****
 Total Charge           Charge          ....    0
 Multiplicity           Mult            ....    1
 Number of Electrons    NEL             ....  154
Dispersion correction           -0.102365730
FINAL SINGLE POINT ENERGY      -920.291088341079
Dispersion correction            ...
                    ***********************HURRAY********************

CARTESIAN COORDINATES (ANGSTROEM)
---------------------------------
  C      2.458095   -2.797595   -0.000009
  C      1.281649   -3.496637   -0.000041
  C      0.030175   -2.827109   -0.000117
  C     -1.202726   -3.534506   -0.000151
  C     -2.396613   -2.870606   -0.000224
  C     -2.450660   -1.449340   -0.000270
  C     -3.685496   -0.753770   -0.000346
  C     -3.733265    0.616334   -0.000389
  C     -2.540150    1.367836   -0.000359
  C     -2.356955    2.761835   -0.000392
  C     -1.298984    3.390348   -0.000364
  C      0.012888    2.884824   -0.000291
  C      1.243397    3.573460   -0.000258
  C      2.423924    2.876445   -0.000185
  C      2.444432    1.459369   -0.000141
  C      3.666828    0.732263   -0.000065
  C      3.679110   -0.633711   -0.000023
  C      2.468353   -1.378352   -0.000053
  C      1.232712   -0.683052   -0.000130
  C      1.217312    0.742469   -0.000172
  C     -0.021467    1.443834   -0.000250
  C     -1.258026    0.709083   -0.000280
  C     -1.234338   -0.714276   -0.000239
  C      0.010323   -1.409428   -0.000160
  H      3.406770   -3.323772    0.000050
  H      1.290188   -4.581419   -0.000006
  H     -1.178821   -4.619008   -0.000117
  H     -3.330174   -3.423020   -0.000249
  H     -4.604696   -1.329579   -0.000370
  H     -4.680874    1.140520   -0.000448
  H      1.236080    4.656365   -0.000291
  H      3.369126    3.408542   -0.000160
  H      4.598422    1.287955   -0.000041
  H      4.620336   -1.172957    0.000035

 Multiplicity           Mult            ....    1
 Number of Electrons    NEL             ....  154
 Basis Dimension        Dim             ....  492

ORBITAL ENERGIES
----------------

  NO   OCC          E(Eh)            E(eV)
   0   2.0000     -10.211171      -277.8601
   1   2.0000     -10.211153      -277.8596
   2   2.0000     -10.198169      -277.5063
   3   2.0000     -10.197777      -277.4956
   4   2.0000     -10.193074      -277.3676
   5   2.0000     -10.193068      -277.3675
   6   2.0000     -10.190488      -277.2973
   7   2.0000     -10.190467      -277.2967
   8   2.0000     -10.190439      -277.2959
   9   2.0000     -10.190079      -277.2861
  10   2.0000     -10.189542      -277.2715
  11   2.0000     -10.189496      -277.2703
  12   2.0000     -10.182977      -277.0929
  13   2.0000     -10.182968      -277.0927
  14   2.0000     -10.182165      -277.0708
  15   2.0000     -10.182157      -277.0706
  16   2.0000     -10.181010      -277.0394
  17   2.0000     -10.180832      -277.0345
  18   2.0000     -10.180816      -277.0341
  19   2.0000     -10.180362      -277.0217
  20   2.0000     -10.180107      -277.0148
  21   2.0000     -10.180093      -277.0144
  22   2.0000     -10.176537      -276.9177
  23   2.0000     -10.174595      -276.8648
  24   2.0000      -0.915743       -24.9186
  25   2.0000      -0.880399       -23.9569
  26   2.0000      -0.878671       -23.9099
  27   2.0000      -0.833102       -22.6699
  28   2.0000      -0.831784       -22.6340
  29   2.0000      -0.813922       -22.1479
  30   2.0000      -0.785547       -21.3758
  31   2.0000      -0.768925       -20.9235
  32   2.0000      -0.753267       -20.4974
  33   2.0000      -0.746151       -20.3038
  34   2.0000      -0.720296       -19.6003
  35   2.0000      -0.720192       -19.5974
  36   2.0000      -0.644300       -17.5323
  37   2.0000      -0.643487       -17.5102
  38   2.0000      -0.639730       -17.4079
  39   2.0000      -0.631512       -17.1843
  40   2.0000      -0.628912       -17.1136
  41   2.0000      -0.571877       -15.5616
  42   2.0000      -0.555501       -15.1160
  43   2.0000      -0.546047       -14.8587
  44   2.0000      -0.540331       -14.7032
  45   2.0000      -0.533187       -14.5088
  46   2.0000      -0.522125       -14.2078
  47   2.0000      -0.484739       -13.1904
  48   2.0000      -0.480569       -13.0769
  49   2.0000      -0.468775       -12.7560
  50   2.0000      -0.464291       -12.6340
  51   2.0000      -0.457526       -12.4499
  52   2.0000      -0.445631       -12.1262
  53   2.0000      -0.435671       -11.8552
  54   2.0000      -0.433434       -11.7943
  55   2.0000      -0.428365       -11.6564
  56   2.0000      -0.418514       -11.3883
  57   2.0000      -0.418093       -11.3769
  58   2.0000      -0.407444       -11.0871
  59   2.0000      -0.395443       -10.7605
  60   2.0000      -0.392994       -10.6939
  61   2.0000      -0.385101       -10.4791
  62   2.0000      -0.382755       -10.4153
  63   2.0000      -0.373122       -10.1532
  64   2.0000      -0.368629       -10.0309
  65   2.0000      -0.341428        -9.2907
  66   2.0000      -0.339496        -9.2382
  67   2.0000      -0.334030        -9.0894
  68   2.0000      -0.331789        -9.0284
  69   2.0000      -0.324307        -8.8249
  70   2.0000      -0.280641        -7.6366
  71   2.0000      -0.276142        -7.5142
  72   2.0000      -0.269722        -7.3395
  73   2.0000      -0.260459        -7.0874
  74   2.0000      -0.258515        -7.0346
  75   2.0000      -0.213677        -5.8144
  76   2.0000      -0.211654        -5.7594
  77   0.0000      -0.075917        -2.0658
  78   0.0000      -0.067113        -1.8262
  79   0.0000      -0.060231        -1.6390
  80   0.0000      -0.026097        -0.7101
  81   0.0000      -0.020945        -0.5699

MULLIKEN ATOMIC CHARGES
-----------------------
   0 C :   -0.052890
   1 C :   -0.053057
   2 C :   -0.023285
   3 C :   -0.058091
   4 C :   -0.046915
   5 C :   -0.030369
   6 C :   -0.064980
   7 C :   -0.034445
   8 C :   -0.017858
   9 C :   -0.023003
  10 C :   -0.023022
  11 C :   -0.017709
  12 C :   -0.034840
  13 C :   -0.064847
  14 C :   -0.030360
  15 C :   -0.046827
  16 C :   -0.057877
  17 C :   -0.023462
  18 C :   -0.031546
  19 C :   -0.029962
  20 C :   -0.002461
  21 C :   -0.002575
  22 C :   -0.030089
  23 C :   -0.031234
  24 H :    0.081028
  25 H :    0.081223
  26 H :    0.081178
  27 H :    0.081553
  28 H :    0.084491
  29 H :    0.087574
  30 H :    0.087732
  31 H :    0.084502
  32 H :    0.081494
  33 H :    0.080933
Sum of atomic charges:   -0.0000000

LOEWDIN ATOMIC CHARGES
----------------------
   0 C :    0.005641
   1 C :    0.005624
   2 C :   -0.018472
   3 C :    0.004407
   4 C :    0.005509
   5 C :   -0.020117
   6 C :    0.010073
   7 C :    0.001588
   8 C :   -0.023955
   9 C :   -0.015277
  10 C :   -0.015228
  11 C :   -0.023982
  12 C :    0.001568
  13 C :    0.010065
  14 C :   -0.020125
  15 C :    0.005523
  16 C :    0.004435
  17 C :   -0.018477
  18 C :    0.000257
  19 C :    0.002442
  20 C :    0.008194
  21 C :    0.008188
  22 C :    0.002438
  23 C :    0.000261
  24 H :    0.006919
  25 H :    0.006928
  26 H :    0.006936
  27 H :    0.007091
  28 H :    0.007928
  29 H :    0.010839
  30 H :    0.010856
  31 H :    0.007941
  32 H :    0.007071
  33 H :    0.006911

  Mayer bond orders larger than 0.100000
B(  0-C ,  1-C ) :   1.5398 B(  0-C , 17-C ) :   1.2471 B(  0-C , 24-H ) :   0.9626
B(  1-C ,  2-C ) :   1.2472 B(  1-C , 25-H ) :   0.9624 B(  2-C ,  3-C ) :   1.2342
B(  2-C , 23-C ) :   1.3539 B(  3-C ,  4-C ) :   1.5557 B(  3-C , 26-H ) :   0.9623
B(  4-C ,  5-C ) :   1.2368 B(  4-C , 27-H ) :   0.9625 B(  5-C ,  6-C ) :   1.2595
B(  5-C , 22-C ) :   1.3448 B(  6-C ,  7-C ) :   1.5133 B(  6-C , 28-H ) :   0.9613
B(  7-C ,  8-C ) :   1.2600 B(  7-C , 29-H ) :   0.9683 B(  8-C ,  9-C ) :   1.2190
B(  8-C , 21-C ) :   1.3058 B(  9-C , 10-C ) :   2.3934 B( 10-C , 11-C ) :   1.2190
B( 11-C , 12-C ) :   1.2598 B( 11-C , 20-C ) :   1.3061 B( 12-C , 13-C ) :   1.5134
B( 12-C , 30-H ) :   0.9682 B( 13-C , 14-C ) :   1.2597 B( 13-C , 31-H ) :   0.9612
B( 14-C , 15-C ) :   1.2367 B( 14-C , 19-C ) :   1.3447 B( 15-C , 16-C ) :   1.5557
B( 15-C , 32-H ) :   0.9625 B( 16-C , 17-C ) :   1.2341 B( 16-C , 33-H ) :   0.9624
B( 17-C , 18-C ) :   1.3538 B( 18-C , 19-C ) :   1.2870 B( 18-C , 23-C ) :   1.2966
B( 19-C , 20-C ) :   1.2978 B( 20-C , 21-C ) :   1.2167 B( 21-C , 22-C ) :   1.2985
B( 22-C , 23-C ) :   1.2863

Dispersion correction           -0.102366215
FINAL SINGLE POINT ENERGY      -920.291088458472

DIPOLE MOMENT
-------------
                                X             Y             Z
Electronic contribution:     -3.86362       6.50209      -0.00037
Nuclear contribution   :      4.28792      -7.21595       0.00041
                        -----------------------------------------
Total Dipole Moment    :      0.42431      -0.71387       0.00004
                        -----------------------------------------
Magnitude (a.u.)       :      0.83045
Magnitude (Debye)      :      2.11083

Dispersion correction in the Hessian             ...

VIBRATIONAL FREQUENCIES
-----------------------

Scaling factor for frequencies =  1.000000000  (already applied!)

   0:         0.00 cm**-1
   1:         0.00 cm**-1
   2:         0.00 cm**-1
   3:         0.00 cm**-1
   4:         0.00 cm**-1
   5:         0.00 cm**-1
   6:        86.28 cm**-1
   7:        86.47 cm**-1
   8:       128.93 cm**-1
   9:       165.52 cm**-1
  10:       224.61 cm**-1
  11:       295.75 cm**-1
  12:       296.35 cm**-1
  13:       302.20 cm**-1
  14:       323.17 cm**-1
  15:       359.26 cm**-1
  16:       367.86 cm**-1
  17:       389.48 cm**-1
  18:       393.62 cm**-1
  19:       423.79 cm**-1
  20:       443.32 cm**-1
  21:       455.69 cm**-1
  22:       478.12 cm**-1
  23:       488.71 cm**-1
  24:       489.02 cm**-1
  25:       501.42 cm**-1
  26:       513.64 cm**-1
  27:       539.85 cm**-1
  28:       553.00 cm**-1
  29:       577.73 cm**-1
  30:       579.58 cm**-1
  31:       607.44 cm**-1
  32:       654.82 cm**-1
  33:       657.40 cm**-1
  34:       675.81 cm**-1
  35:       685.25 cm**-1
  36:       688.83 cm**-1
  37:       737.92 cm**-1
  38:       747.79 cm**-1
  39:       773.02 cm**-1
  40:       776.68 cm**-1
  41:       777.35 cm**-1
  42:       794.21 cm**-1
  43:       811.86 cm**-1
  44:       825.46 cm**-1
  45:       826.01 cm**-1
  46:       836.64 cm**-1
  47:       853.93 cm**-1
  48:       869.41 cm**-1
  49:       914.09 cm**-1
  50:       962.80 cm**-1
  51:       968.33 cm**-1
  52:       973.95 cm**-1
  53:       979.35 cm**-1
  54:       983.49 cm**-1
  55:       994.90 cm**-1
  56:      1008.24 cm**-1
  57:      1042.98 cm**-1
  58:      1135.57 cm**-1
  59:      1153.53 cm**-1
  60:      1171.91 cm**-1
  61:      1172.48 cm**-1
  62:      1180.22 cm**-1
  63:      1221.49 cm**-1
  64:      1223.70 cm**-1
  65:      1237.76 cm**-1
  66:      1244.55 cm**-1
  67:      1245.94 cm**-1
  68:      1255.84 cm**-1
  69:      1293.84 cm**-1
  70:      1300.56 cm**-1
  71:      1346.98 cm**-1
  72:      1354.33 cm**-1
  73:      1382.06 cm**-1
  74:      1388.65 cm**-1
  75:      1408.07 cm**-1
  76:      1424.09 cm**-1
  77:      1429.99 cm**-1
  78:      1458.03 cm**-1
  79:      1463.88 cm**-1
  80:      1466.81 cm**-1
  81:      1494.09 cm**-1
  82:      1527.38 cm**-1
  83:      1533.25 cm**-1
  84:      1552.60 cm**-1
  85:      1568.11 cm**-1
  86:      1583.64 cm**-1
  87:      1640.23 cm**-1
  88:      1646.81 cm**-1
  89:      1656.53 cm**-1
  90:      1659.11 cm**-1
  91:      2070.48 cm**-1
  92:      3157.38 cm**-1
  93:      3158.84 cm**-1
  94:      3159.90 cm**-1
  95:      3166.56 cm**-1
  96:      3166.73 cm**-1
  97:      3175.10 cm**-1
  98:      3176.87 cm**-1
  99:      3178.02 cm**-1
 100:      3193.42 cm**-1
 101:      3193.56 cm**-1

IR SPECTRUM
-----------

 Mode   freq       eps      Int      T**2         TX        TY        TZ
       cm**-1   L/(mol*cm) km/mol    a.u.
----------------------------------------------------------------------------
  6:     86.28   0.000099    0.50  0.000356  ( 0.000043  0.000011 -0.018878)
  7:     86.47   0.000002    0.01  0.000007  (-0.000060 -0.000016 -0.002716)
  8:    128.93   0.000932    4.71  0.002255  ( 0.000014  0.000000  0.047486)
  9:    165.52   0.000003    0.02  0.000006  (-0.000013 -0.000008  0.002447)
 10:    224.61   0.000000    0.00  0.000000  (-0.000001 -0.000004  0.000006)
 11:    295.75   0.000003    0.01  0.000003  ( 0.000001  0.000007  0.001670)
 12:    296.35   0.000000    0.00  0.000000  ( 0.000013  0.000006 -0.000076)
 13:    302.20   0.000000    0.00  0.000000  (-0.000008 -0.000006  0.000046)
 14:    323.17   0.000269    1.36  0.000259  (-0.000003  0.000006  0.016103)
 15:    359.26   0.001962    9.92  0.001705  ( 0.035483  0.021106  0.000001)
 16:    367.86   0.000003    0.01  0.000002  ( 0.000797 -0.001220  0.000000)
 17:    389.48   0.001309    6.61  0.001049  ( 0.016526 -0.027849  0.000002)
 18:    393.62   0.000026    0.13  0.000020  (-0.003858 -0.002324 -0.000000)
 19:    423.79   0.000000    0.00  0.000000  (-0.000002  0.000010  0.000046)
 20:    443.32   0.012028   60.79  0.008467  ( 0.079116  0.046987  0.000002)
 21:    455.69   0.000063    0.32  0.000043  ( 0.000012 -0.000005  0.006560)
 22:    478.12   0.000050    0.25  0.000033  ( 0.002975 -0.004870  0.000000)
 23:    488.71   0.000000    0.00  0.000000  (-0.000013  0.000007  0.000034)
 24:    489.02   0.000116    0.59  0.000074  (-0.004404  0.007389 -0.000001)
 25:    501.42   0.000023    0.12  0.000014  (-0.001919  0.003253 -0.000000)
 26:    513.64   0.000299    1.51  0.000182  ( 0.011581  0.006898  0.000000)
 27:    539.85   0.000000    0.00  0.000000  (-0.000017 -0.000005  0.000005)
 28:    553.00   0.001323    6.68  0.000746  (-0.000016  0.000002  0.027320)
 29:    577.73   0.004493   22.71  0.002427  ( 0.000004 -0.000000 -0.049266)
 30:    579.58   0.001483    7.49  0.000798  ( 0.024300  0.014416  0.000010)
 31:    607.44   0.000000    0.00  0.000000  (-0.000005  0.000004 -0.000040)
 32:    654.82   0.000000    0.00  0.000000  ( 0.000008  0.000001  0.000013)
 33:    657.40   0.000279    1.41  0.000132  ( 0.009885  0.005896  0.000000)
 34:    675.81   0.000141    0.71  0.000065  ( 0.000021  0.000007 -0.008075)
 35:    685.25   0.000219    1.11  0.000100  (-0.005121  0.008582 -0.000001)
 36:    688.83   0.000012    0.06  0.000006  (-0.002046 -0.001194 -0.000000)
 37:    737.92   0.000000    0.00  0.000000  ( 0.000001 -0.000008 -0.000023)
 38:    747.79   0.001500    7.58  0.000626  (-0.021504 -0.012793 -0.000000)
 39:    773.02   0.000082    0.42  0.000033  ( 0.000000  0.000006 -0.005762)
 40:    776.68   0.000623    3.15  0.000250  ( 0.008072 -0.013610  0.000001)
 41:    777.35   0.000000    0.00  0.000000  (-0.000001  0.000001  0.000039)
 42:    794.21   0.000714    3.61  0.000280  ( 0.000007 -0.000012  0.016746)
 43:    811.86   0.000000    0.00  0.000000  ( 0.000002  0.000007 -0.000030)
 44:    825.46   0.000000    0.00  0.000000  ( 0.000316 -0.000040  0.000001)
 45:    826.01   0.000165    0.84  0.000062  ( 0.003996 -0.006816  0.000001)
 46:    836.64   0.001525    7.71  0.000569  ( 0.000019  0.000004  0.023849)
 47:    853.93   0.000000    0.00  0.000000  ( 0.000008 -0.000002 -0.000042)
 48:    869.41   0.024107  121.83  0.008653  ( 0.000019 -0.000006 -0.093021)
 49:    914.09   0.000125    0.63  0.000043  ( 0.005630  0.003328 -0.000000)
 50:    962.80   0.000000    0.00  0.000000  ( 0.000016  0.000004 -0.000005)
 51:    968.33   0.000024    0.12  0.000008  ( 0.000013 -0.000012 -0.002808)
 52:    973.95   0.000000    0.00  0.000000  (-0.000011 -0.000009  0.000027)
 53:    979.35   0.000011    0.06  0.000004  ( 0.000006  0.000007  0.001884)
 54:    983.49   0.000000    0.00  0.000000  (-0.000025 -0.000000 -0.000018)
 55:    994.90   0.000153    0.77  0.000048  ( 0.005956  0.003539 -0.000000)
 56:   1008.24   0.000006    0.03  0.000002  (-0.000708  0.001226 -0.000000)
 57:   1042.98   0.000205    1.04  0.000061  (-0.004010  0.006738 -0.000001)
 58:   1135.57   0.002164   10.94  0.000595  ( 0.020948  0.012485  0.000001)
 59:   1153.53   0.002031   10.26  0.000549  ( 0.011871 -0.020212  0.000001)
 60:   1171.91   0.000116    0.58  0.000031  ( 0.002837 -0.004773  0.000000)
 61:   1172.48   0.000090    0.45  0.000024  ( 0.004227  0.002458  0.000000)
 62:   1180.22   0.000198    1.00  0.000052  ( 0.006218  0.003695  0.000000)
 63:   1221.49   0.000099    0.50  0.000025  ( 0.002563 -0.004332  0.000000)
 64:   1223.70   0.000422    2.13  0.000108  (-0.005333  0.008902 -0.000000)
 65:   1237.76   0.000330    1.67  0.000083  ( 0.004643 -0.007858  0.000000)
 66:   1244.55   0.000013    0.07  0.000003  ( 0.000863 -0.001625  0.000000)
 67:   1245.94   0.000142    0.72  0.000035  (-0.005130 -0.003024 -0.000000)
 68:   1255.84   0.000009    0.05  0.000002  (-0.001293 -0.000738 -0.000000)
 69:   1293.84   0.001687    8.53  0.000407  ( 0.010365 -0.017306  0.000001)
 70:   1300.56   0.001265    6.40  0.000304  (-0.014950 -0.008952 -0.000000)
 71:   1346.98   0.000788    3.98  0.000183  ( 0.006962 -0.011582  0.000001)
 72:   1354.33   0.001542    7.79  0.000355  ( 0.016191  0.009656  0.000001)
 73:   1382.06   0.000001    0.01  0.000000  (-0.000428 -0.000227  0.000000)
 74:   1388.65   0.000464    2.34  0.000104  (-0.005198  0.008783 -0.000000)
 75:   1408.07   0.000088    0.44  0.000019  (-0.002252  0.003794 -0.000000)
 76:   1424.09   0.000787    3.98  0.000172  (-0.006721  0.011283 -0.000001)
 77:   1429.99   0.000244    1.23  0.000053  (-0.006261 -0.003744 -0.000000)
 78:   1458.03   0.000004    0.02  0.000001  ( 0.000746  0.000440  0.000000)
 79:   1463.88   0.000096    0.49  0.000021  (-0.003910 -0.002294 -0.000000)
 80:   1466.81   0.000624    3.16  0.000133  (-0.005897  0.009902 -0.000001)
 81:   1494.09   0.000114    0.58  0.000024  ( 0.002512 -0.004192  0.000000)
 82:   1527.38   0.001358    6.86  0.000277  ( 0.008521 -0.014312  0.000001)
 83:   1533.25   0.001419    7.17  0.000289  (-0.014610 -0.008682 -0.000000)
 84:   1552.60   0.000179    0.90  0.000036  ( 0.005130  0.003097  0.000000)
 85:   1568.11   0.002110   10.66  0.000420  ( 0.010472 -0.017612  0.000001)
 86:   1583.64   0.000725    3.67  0.000143  (-0.010272 -0.006118 -0.000000)
 87:   1640.23   0.002485   12.56  0.000473  (-0.018697 -0.011100 -0.000001)
 88:   1646.81   0.000919    4.64  0.000174  ( 0.006700 -0.011367  0.000001)
 89:   1656.53   0.000582    2.94  0.000110  (-0.005336  0.009005 -0.000001)
 90:   1659.11   0.002585   13.06  0.000486  ( 0.018989  0.011206  0.000001)
 91:   2070.48   0.000108    0.54  0.000016  (-0.002061  0.003462 -0.000000)
 92:   3157.38   0.000418    2.11  0.000041  ( 0.005691  0.002996  0.000000)
 93:   3158.84   0.000584    2.95  0.000058  (-0.003451  0.006769 -0.000000)
 94:   3159.90   0.000092    0.46  0.000009  ( 0.002756  0.001213  0.000000)
 95:   3166.56   0.001630    8.24  0.000161  ( 0.009938  0.007865  0.000000)
 96:   3166.73   0.000774    3.91  0.000076  (-0.008496 -0.002026 -0.000000)
 97:   3175.10   0.000985    4.98  0.000097  (-0.005596  0.008093 -0.000001)
 98:   3176.87   0.010807   54.61  0.001062  (-0.027071 -0.018131 -0.000001)
 99:   3178.02   0.008774   44.34  0.000862  (-0.016389  0.024351 -0.000001)
100:   3193.42   0.004331   21.89  0.000423  (-0.016393 -0.012432 -0.000000)
101:   3193.56   0.001953    9.87  0.000191  (-0.009756  0.009779 -0.000001)

--------------------------
THERMOCHEMISTRY AT 298.15K
--------------------------

Temperature         ... 298.15 K
Pressure            ... 1.00 atm
Total Mass          ... 298.34 AMU

Throughout the following assumptions are being made:
  (1) The electronic state is orbitally nondegenerate
  (2) There are no thermally accessible electronically excited states
  (3) Hindered rotations indicated by low frequency modes are not
      treated as such but are treated as vibrations and this may
      cause some error
  (4) All equations used are the standard statistical mechanics
      equations for an ideal gas
  (5) All vibrations are strictly harmonic

freq.      86.28  E(vib)   ...       0.48
freq.      86.47  E(vib)   ...       0.48
freq.     128.93  E(vib)   ...       0.43
freq.     165.52  E(vib)   ...       0.39
freq.     224.61  E(vib)   ...       0.33
freq.     295.75  E(vib)   ...       0.27
freq.     296.35  E(vib)   ...       0.27
freq.     302.20  E(vib)   ...       0.26
freq.     323.17  E(vib)   ...       0.25
freq.     359.26  E(vib)   ...       0.22
freq.     367.86  E(vib)   ...       0.21
freq.     389.48  E(vib)   ...       0.20
freq.     393.62  E(vib)   ...       0.20
freq.     423.79  E(vib)   ...       0.18
freq.     443.32  E(vib)   ...       0.17
freq.     455.69  E(vib)   ...       0.16
freq.     478.12  E(vib)   ...       0.15
freq.     488.71  E(vib)   ...       0.15
freq.     489.02  E(vib)   ...       0.15
freq.     501.42  E(vib)   ...       0.14
freq.     513.64  E(vib)   ...       0.13
freq.     539.85  E(vib)   ...       0.12
freq.     553.00  E(vib)   ...       0.12
freq.     577.73  E(vib)   ...       0.11
freq.     579.58  E(vib)   ...       0.11
freq.     607.44  E(vib)   ...       0.10
freq.     654.82  E(vib)   ...       0.08
freq.     657.40  E(vib)   ...       0.08
freq.     675.81  E(vib)   ...       0.08
freq.     685.25  E(vib)   ...       0.07
freq.     688.83  E(vib)   ...       0.07
freq.     737.92  E(vib)   ...       0.06
freq.     747.79  E(vib)   ...       0.06
freq.     773.02  E(vib)   ...       0.05
freq.     776.68  E(vib)   ...       0.05
freq.     777.35  E(vib)   ...       0.05
freq.     794.21  E(vib)   ...       0.05
freq.     811.86  E(vib)   ...       0.05
freq.     825.46  E(vib)   ...       0.04
freq.     826.01  E(vib)   ...       0.04
freq.     836.64  E(vib)   ...       0.04
freq.     853.93  E(vib)   ...       0.04
freq.     869.41  E(vib)   ...       0.04
freq.     914.09  E(vib)   ...       0.03
freq.     962.80  E(vib)   ...       0.03
freq.     968.33  E(vib)   ...       0.03
freq.     973.95  E(vib)   ...       0.03
freq.     979.35  E(vib)   ...       0.03
freq.     983.49  E(vib)   ...       0.02
freq.     994.90  E(vib)   ...       0.02
freq.    1008.24  E(vib)   ...       0.02
freq.    1042.98  E(vib)   ...       0.02
freq.    1135.57  E(vib)   ...       0.01
freq.    1153.53  E(vib)   ...       0.01
freq.    1171.91  E(vib)   ...       0.01
freq.    1172.48  E(vib)   ...       0.01
freq.    1180.22  E(vib)   ...       0.01
freq.    1221.49  E(vib)   ...       0.01
freq.    1223.70  E(vib)   ...       0.01
freq.    1237.76  E(vib)   ...       0.01
freq.    1244.55  E(vib)   ...       0.01
freq.    1245.94  E(vib)   ...       0.01
freq.    1255.84  E(vib)   ...       0.01
freq.    1293.84  E(vib)   ...       0.01
freq.    1300.56  E(vib)   ...       0.01
freq.    1346.98  E(vib)   ...       0.01
freq.    1354.33  E(vib)   ...       0.01
freq.    1382.06  E(vib)   ...       0.01
freq.    1388.65  E(vib)   ...       0.00
freq.    1408.07  E(vib)   ...       0.00
freq.    1424.09  E(vib)   ...       0.00
freq.    1429.99  E(vib)   ...       0.00
freq.    1458.03  E(vib)   ...       0.00
freq.    1463.88  E(vib)   ...       0.00
freq.    1466.81  E(vib)   ...       0.00
freq.    1494.09  E(vib)   ...       0.00
freq.    1527.38  E(vib)   ...       0.00
freq.    1533.25  E(vib)   ...       0.00
freq.    1552.60  E(vib)   ...       0.00
freq.    1568.11  E(vib)   ...       0.00
freq.    1583.64  E(vib)   ...       0.00
freq.    1640.23  E(vib)   ...       0.00
freq.    1646.81  E(vib)   ...       0.00
freq.    1656.53  E(vib)   ...       0.00
freq.    1659.11  E(vib)   ...       0.00
freq.    2070.48  E(vib)   ...       0.00
freq.    3157.38  E(vib)   ...       0.00
freq.    3158.84  E(vib)   ...       0.00
freq.    3159.90  E(vib)   ...       0.00
freq.    3166.56  E(vib)   ...       0.00
freq.    3166.73  E(vib)   ...       0.00
freq.    3175.10  E(vib)   ...       0.00
freq.    3176.87  E(vib)   ...       0.00
freq.    3178.02  E(vib)   ...       0.00
freq.    3193.42  E(vib)   ...       0.00
freq.    3193.56  E(vib)   ...       0.00

------------
INNER ENERGY
------------

The inner energy is: U= E(el) + E(ZPE) + E(vib) + E(rot) + E(trans)
    E(el)   - is the total energy from the electronic structure calculation
              = E(kin-el) + E(nuc-el) + E(el-el) + E(nuc-nuc)
    E(ZPE)  - the the zero temperature vibrational energy from the frequency calculation
    E(vib)  - the the finite temperature correction to E(ZPE) due to population
              of excited vibrational states
    E(rot)  - is the rotational thermal energy
    E(trans)- is the translational thermal energy

Summary of contributions to the inner energy U:
Electronic energy                ...   -920.29108846 Eh
Zero point energy                ...      0.25403907 Eh     159.41 kcal/mol
Thermal vibrational correction   ...      0.01141083 Eh       7.16 kcal/mol
Thermal rotational correction    ...      0.00141627 Eh       0.89 kcal/mol
Thermal translational correction ...      0.00141627 Eh       0.89 kcal/mol
-----------------------------------------------------------------------
Total thermal energy                   -920.02280601 Eh

Summary of corrections to the electronic energy:
(perhaps to be used in another calculation)
Total thermal correction                  0.01424337 Eh       8.94 kcal/mol
Non-thermal (ZPE) correction              0.25403907 Eh     159.41 kcal/mol
-----------------------------------------------------------------------
Total correction                          0.26828245 Eh     168.35 kcal/mol

--------
ENTHALPY
--------

The enthalpy is H = U + kB*T
                kB is Boltzmann's constant
Total free energy                 ...   -920.02280601 Eh
Thermal Enthalpy correction       ...      0.00094421 Eh       0.59 kcal/mol
-----------------------------------------------------------------------
Total Enthalpy                    ...   -920.02186180 Eh

Note: Rotational entropy computed according to Herzberg
Infrared and Raman Spectra, Chapter V,1, Van Nostrand Reinhold, 1945
Point Group:  Cs, Symmetry Number:   1
Rotational constants in cm-1:     0.011665     0.011070     0.005680

                             ****ORCA TERMINATED NORMALLY****
TOTAL RUN TIME: 0 days 0 hours 54 minutes 36 seconds 626 msec
