                         Program Version 5.0.4 -  RELEASE  -
|  1> !b3lyp 6-311g** d4 pal4 opt freq tightscf
|  2>
|  3>
|  4>
|  5> * xyz 0 1
|  6>   C   2.45024767781397     -2.79088845422407     -0.00000938991726
|  7>   C   1.27956267261532     -3.48658808767447     -0.00004199041518
|  8>   C   0.03020310625919     -2.81550732119018     -0.00011789062906
|  9>   C   -1.20108929293839     -3.52527633478020     -0.00015283044576
| 10>   C   -2.38858597622182     -2.86504893637874     -0.00022498731516
| 11>   C   -2.44108197261203     -1.44399840937901     -0.00026977722794
| 12>   C   -3.67664815488274     -0.75323846120680     -0.00034508171349
| 13>   C   -3.72619103513175      0.61011442158688     -0.00038695503160
| 14>   C   -2.53310385205262      1.35934451234726     -0.00035606001250
| 15>   C   -2.34752598708266      2.75390994650057     -0.00038920673762
| 16>   C   -1.29670621365080      3.37860291890169     -0.00036230773715
| 17>   C   0.01683951893005      2.87466311961114     -0.00029133231447
| 18>   C   1.24551381641079      3.56424109354326     -0.00025979444256
| 19>   C   2.41912619307901      2.86884590764749     -0.00018732290336
| 20>   C   2.43516507628830      1.45349356601676     -0.00014257265195
| 21>   C   3.65823793814160      0.72790757912234     -0.00006413468989
| 22>   C   3.67028527219667     -0.63084086543001     -0.00002138690896
| 23>   C   2.45820052906728     -1.37288152517845     -0.00005316837364
| 24>   C   1.23136984515361     -0.68204197678717     -0.00012966191552
| 25>   C   1.21554524887866      0.74294181053525     -0.00017432075702
| 26>   C   -0.02154995620554      1.44515622172209     -0.00024986159180
| 27>   C   -1.25909884296142      0.70968573654380     -0.00028126057904
| 28>   C   -1.23394295940125     -0.71246465284663     -0.00023766649264
| 29>   C   0.01011894540401     -1.40778721810258     -0.00016257370372
| 30>   H   3.39881580580318     -3.31417954221239      0.00004974485595
| 31>   H   1.28573635923110     -4.56988777799178     -0.00000784587274
| 32>   H   -1.17447994529076     -4.60821534800633     -0.00011914167385
| 33>   H   -3.32210856630241     -3.41462105732816     -0.00025074935228
| 34>   H   -4.59259219317491     -1.33148181218652     -0.00036964131605
| 35>   H   -4.67219547496003      1.13375240591159     -0.00044538469848
| 36>   H   1.23804129197342      4.64547385631899     -0.00029312160517
| 37>   H   3.36486881829754      3.39701007763111     -0.00016209932451
| 38>   H   4.58719661221870      1.28514520034098     -0.00003968006642
| 39>   H   4.60870298987178     -1.17199696838782      0.00003992508645
| 40>   **                         ****END OF INPUT****
 Total Charge           Charge          ....    0
 Multiplicity           Mult            ....    1
 Number of Electrons    NEL             ....  154
Dispersion correction           -0.102761477
FINAL SINGLE POINT ENERGY      -920.290315051116
Dispersion correction            ...
Dispersion correction           -0.102421962
FINAL SINGLE POINT ENERGY      -920.291002768252
Dispersion correction            ... Starting D4
Dispersion correction           -0.102348899
FINAL SINGLE POINT ENERGY      -920.291076547236
Dispersion correction            ... Starting D4
Dispersion correction           -0.102355178
FINAL SINGLE POINT ENERGY      -920.291086328545
Dispersion correction            ...
                    ***********************HURRAY********************

CARTESIAN COORDINATES (ANGSTROEM)
---------------------------------
  C      2.458144   -2.797624   -0.000009
  C      1.281650   -3.496694   -0.000040
  C      0.030174   -2.827141   -0.000117
  C     -1.202731   -3.534564   -0.000151
  C     -2.396657   -2.870627   -0.000225
  C     -2.450659   -1.449345   -0.000270
  C     -3.685511   -0.753772   -0.000346
  C     -3.733255    0.616394   -0.000389
  C     -2.540088    1.367839   -0.000358
  C     -2.357006    2.761865   -0.000392
  C     -1.298986    3.390441   -0.000364
  C      0.012852    2.884771   -0.000291
  C      1.243337    3.573479   -0.000258
  C      2.423932    2.876457   -0.000185
  C      2.444436    1.459366   -0.000141
  C      3.666868    0.732290   -0.000065
  C      3.679162   -0.633733   -0.000023
  C      2.468381   -1.378365   -0.000053
  C      1.232707   -0.683062   -0.000130
  C      1.217293    0.742424   -0.000172
  C     -0.021459    1.443774   -0.000250
  C     -1.257972    0.709047   -0.000281
  C     -1.234288   -0.714283   -0.000239
  C      0.010333   -1.409431   -0.000160
  H      3.406883   -3.323677    0.000050
  H      1.290047   -4.581473   -0.000006
  H     -1.178661   -4.619057   -0.000117
  H     -3.330315   -3.422870   -0.000250
  H     -4.604651   -1.329669   -0.000370
  H     -4.680788    1.140709   -0.000448
  H      1.235869    4.656378   -0.000291
  H      3.369180    3.408465   -0.000160
  H      4.598355    1.288154   -0.000041
  H      4.620300   -1.173124    0.000035

 Multiplicity           Mult            ....    1
 Number of Electrons    NEL             ....  154
 Basis Dimension        Dim             ....  492

ORBITAL ENERGIES
----------------

  NO   OCC          E(Eh)            E(eV)
   0   2.0000     -10.211172      -277.8601
   1   2.0000     -10.211155      -277.8596
   2   2.0000     -10.198161      -277.5061
   3   2.0000     -10.197768      -277.4954
   4   2.0000     -10.193067      -277.3675
   5   2.0000     -10.193060      -277.3673
   6   2.0000     -10.190487      -277.2972
   7   2.0000     -10.190470      -277.2968
   8   2.0000     -10.190436      -277.2959
   9   2.0000     -10.190074      -277.2860
  10   2.0000     -10.189545      -277.2716
  11   2.0000     -10.189497      -277.2703
  12   2.0000     -10.182982      -277.0930
  13   2.0000     -10.182974      -277.0928
  14   2.0000     -10.182168      -277.0709
  15   2.0000     -10.182160      -277.0707
  16   2.0000     -10.181019      -277.0396
  17   2.0000     -10.180842      -277.0348
  18   2.0000     -10.180826      -277.0343
  19   2.0000     -10.180371      -277.0220
  20   2.0000     -10.180116      -277.0151
  21   2.0000     -10.180102      -277.0147
  22   2.0000     -10.176552      -276.9180
  23   2.0000     -10.174611      -276.8652
  24   2.0000      -0.915739       -24.9185
  25   2.0000      -0.880389       -23.9566
  26   2.0000      -0.878658       -23.9095
  27   2.0000      -0.833089       -22.6695
  28   2.0000      -0.831771       -22.6337
  29   2.0000      -0.813925       -22.1480
  30   2.0000      -0.785528       -21.3753
  31   2.0000      -0.768921       -20.9234
  32   2.0000      -0.753263       -20.4973
  33   2.0000      -0.746151       -20.3038
  34   2.0000      -0.720285       -19.6000
  35   2.0000      -0.720177       -19.5970
  36   2.0000      -0.644295       -17.5322
  37   2.0000      -0.643485       -17.5101
  38   2.0000      -0.639728       -17.4079
  39   2.0000      -0.631509       -17.1842
  40   2.0000      -0.628903       -17.1133
  41   2.0000      -0.571876       -15.5615
  42   2.0000      -0.555501       -15.1160
  43   2.0000      -0.546040       -14.8585
  44   2.0000      -0.540321       -14.7029
  45   2.0000      -0.533185       -14.5087
  46   2.0000      -0.522125       -14.2077
  47   2.0000      -0.484724       -13.1900
  48   2.0000      -0.480555       -13.0766
  49   2.0000      -0.468775       -12.7560
  50   2.0000      -0.464297       -12.6342
  51   2.0000      -0.457526       -12.4499
  52   2.0000      -0.445627       -12.1261
  53   2.0000      -0.435667       -11.8551
  54   2.0000      -0.433431       -11.7943
  55   2.0000      -0.428363       -11.6564
  56   2.0000      -0.418516       -11.3884
  57   2.0000      -0.418094       -11.3769
  58   2.0000      -0.407444       -11.0871
  59   2.0000      -0.395434       -10.7603
  60   2.0000      -0.392984       -10.6936
  61   2.0000      -0.385100       -10.4791
  62   2.0000      -0.382756       -10.4153
  63   2.0000      -0.373120       -10.1531
  64   2.0000      -0.368631       -10.0310
  65   2.0000      -0.341418        -9.2905
  66   2.0000      -0.339487        -9.2379
  67   2.0000      -0.334032        -9.0895
  68   2.0000      -0.331786        -9.0284
  69   2.0000      -0.324309        -8.8249
  70   2.0000      -0.280629        -7.6363
  71   2.0000      -0.276138        -7.5141
  72   2.0000      -0.269719        -7.3394
  73   2.0000      -0.260457        -7.0874
  74   2.0000      -0.258515        -7.0346
  75   2.0000      -0.213669        -5.8142
  76   2.0000      -0.211647        -5.7592
  77   0.0000      -0.075954        -2.0668
  78   0.0000      -0.067116        -1.8263
  79   0.0000      -0.060237        -1.6391
  80   0.0000      -0.026097        -0.7101
  81   0.0000      -0.020947        -0.5700

MULLIKEN ATOMIC CHARGES
-----------------------
   0 C :   -0.052891
   1 C :   -0.053058
   2 C :   -0.023325
   3 C :   -0.058072
   4 C :   -0.046924
   5 C :   -0.030386
   6 C :   -0.064975
   7 C :   -0.034444
   8 C :   -0.017890
   9 C :   -0.023003
  10 C :   -0.023015
  11 C :   -0.017728
  12 C :   -0.034853
  13 C :   -0.064842
  14 C :   -0.030393
  15 C :   -0.046828
  16 C :   -0.057868
  17 C :   -0.023502
  18 C :   -0.031501
  19 C :   -0.029965
  20 C :   -0.002454
  21 C :   -0.002593
  22 C :   -0.030109
  23 C :   -0.031178
  24 H :    0.081036
  25 H :    0.081231
  26 H :    0.081187
  27 H :    0.081560
  28 H :    0.084499
  29 H :    0.087585
  30 H :    0.087744
  31 H :    0.084509
  32 H :    0.081503
  33 H :    0.080942
Sum of atomic charges:    0.0000000

LOEWDIN ATOMIC CHARGES
----------------------
   0 C :    0.005643
   1 C :    0.005625
   2 C :   -0.018464
   3 C :    0.004409
   4 C :    0.005512
   5 C :   -0.020106
   6 C :    0.010071
   7 C :    0.001591
   8 C :   -0.023954
   9 C :   -0.015263
  10 C :   -0.015232
  11 C :   -0.023976
  12 C :    0.001573
  13 C :    0.010063
  14 C :   -0.020114
  15 C :    0.005527
  16 C :    0.004436
  17 C :   -0.018469
  18 C :    0.000248
  19 C :    0.002433
  20 C :    0.008181
  21 C :    0.008178
  22 C :    0.002429
  23 C :    0.000252
  24 H :    0.006918
  25 H :    0.006926
  26 H :    0.006935
  27 H :    0.007089
  28 H :    0.007926
  29 H :    0.010838
  30 H :    0.010854
  31 H :    0.007938
  32 H :    0.007070
  33 H :    0.006910

  Mayer bond orders larger than 0.100000
B(  0-C ,  1-C ) :   1.5397 B(  0-C , 17-C ) :   1.2472 B(  0-C , 24-H ) :   0.9625
B(  1-C ,  2-C ) :   1.2472 B(  1-C , 25-H ) :   0.9624 B(  2-C ,  3-C ) :   1.2342
B(  2-C , 23-C ) :   1.3538 B(  3-C ,  4-C ) :   1.5556 B(  3-C , 26-H ) :   0.9622
B(  4-C ,  5-C ) :   1.2368 B(  4-C , 27-H ) :   0.9625 B(  5-C ,  6-C ) :   1.2596
B(  5-C , 22-C ) :   1.3447 B(  6-C ,  7-C ) :   1.5132 B(  6-C , 28-H ) :   0.9613
B(  7-C ,  8-C ) :   1.2600 B(  7-C , 29-H ) :   0.9683 B(  8-C ,  9-C ) :   1.2190
B(  8-C , 21-C ) :   1.3058 B(  9-C , 10-C ) :   2.3933 B( 10-C , 11-C ) :   1.2190
B( 11-C , 12-C ) :   1.2598 B( 11-C , 20-C ) :   1.3061 B( 12-C , 13-C ) :   1.5133
B( 12-C , 30-H ) :   0.9682 B( 13-C , 14-C ) :   1.2597 B( 13-C , 31-H ) :   0.9612
B( 14-C , 15-C ) :   1.2368 B( 14-C , 19-C ) :   1.3447 B( 15-C , 16-C ) :   1.5556
B( 15-C , 32-H ) :   0.9625 B( 16-C , 17-C ) :   1.2341 B( 16-C , 33-H ) :   0.9624
B( 17-C , 18-C ) :   1.3538 B( 18-C , 19-C ) :   1.2870 B( 18-C , 23-C ) :   1.2966
B( 19-C , 20-C ) :   1.2978 B( 20-C , 21-C ) :   1.2168 B( 21-C , 22-C ) :   1.2986
B( 22-C , 23-C ) :   1.2863

Dispersion correction           -0.102365730
FINAL SINGLE POINT ENERGY      -920.291088295738

DIPOLE MOMENT
-------------
                                X             Y             Z
Electronic contribution:     -3.86348       6.50182      -0.00037
Nuclear contribution   :      4.28775      -7.21568       0.00041
                        -----------------------------------------
Total Dipole Moment    :      0.42427      -0.71386       0.00004
                        -----------------------------------------
Magnitude (a.u.)       :      0.83043
Magnitude (Debye)      :      2.11077

Dispersion correction in the Hessian             ...

VIBRATIONAL FREQUENCIES
-----------------------

Scaling factor for frequencies =  1.000000000  (already applied!)

   0:         0.00 cm**-1
   1:         0.00 cm**-1
   2:         0.00 cm**-1
   3:         0.00 cm**-1
   4:         0.00 cm**-1
   5:         0.00 cm**-1
   6:        86.35 cm**-1
   7:        86.54 cm**-1
   8:       128.97 cm**-1
   9:       165.53 cm**-1
  10:       224.76 cm**-1
  11:       295.77 cm**-1
  12:       296.40 cm**-1
  13:       302.23 cm**-1
  14:       323.20 cm**-1
  15:       359.29 cm**-1
  16:       367.86 cm**-1
  17:       389.48 cm**-1
  18:       393.61 cm**-1
  19:       423.91 cm**-1
  20:       443.38 cm**-1
  21:       455.74 cm**-1
  22:       478.11 cm**-1
  23:       488.75 cm**-1
  24:       489.02 cm**-1
  25:       501.44 cm**-1
  26:       513.65 cm**-1
  27:       539.88 cm**-1
  28:       553.00 cm**-1
  29:       577.74 cm**-1
  30:       579.60 cm**-1
  31:       607.43 cm**-1
  32:       654.81 cm**-1
  33:       657.39 cm**-1
  34:       675.81 cm**-1
  35:       685.24 cm**-1
  36:       688.82 cm**-1
  37:       737.91 cm**-1
  38:       747.80 cm**-1
  39:       773.01 cm**-1
  40:       776.70 cm**-1
  41:       777.35 cm**-1
  42:       794.20 cm**-1
  43:       811.85 cm**-1
  44:       825.42 cm**-1
  45:       825.98 cm**-1
  46:       836.63 cm**-1
  47:       853.93 cm**-1
  48:       869.40 cm**-1
  49:       914.10 cm**-1
  50:       962.75 cm**-1
  51:       968.28 cm**-1
  52:       973.90 cm**-1
  53:       979.31 cm**-1
  54:       983.45 cm**-1
  55:       994.90 cm**-1
  56:      1008.23 cm**-1
  57:      1042.95 cm**-1
  58:      1135.52 cm**-1
  59:      1153.45 cm**-1
  60:      1171.82 cm**-1
  61:      1172.48 cm**-1
  62:      1180.13 cm**-1
  63:      1221.47 cm**-1
  64:      1223.65 cm**-1
  65:      1237.72 cm**-1
  66:      1244.52 cm**-1
  67:      1245.91 cm**-1
  68:      1255.80 cm**-1
  69:      1293.84 cm**-1
  70:      1300.53 cm**-1
  71:      1346.96 cm**-1
  72:      1354.33 cm**-1
  73:      1382.00 cm**-1
  74:      1388.65 cm**-1
  75:      1408.00 cm**-1
  76:      1424.03 cm**-1
  77:      1429.92 cm**-1
  78:      1457.96 cm**-1
  79:      1463.87 cm**-1
  80:      1466.83 cm**-1
  81:      1493.99 cm**-1
  82:      1527.29 cm**-1
  83:      1533.16 cm**-1
  84:      1552.52 cm**-1
  85:      1568.03 cm**-1
  86:      1583.56 cm**-1
  87:      1640.12 cm**-1
  88:      1646.67 cm**-1
  89:      1656.41 cm**-1
  90:      1658.99 cm**-1
  91:      2070.06 cm**-1
  92:      3157.42 cm**-1
  93:      3158.88 cm**-1
  94:      3159.94 cm**-1
  95:      3166.60 cm**-1
  96:      3166.77 cm**-1
  97:      3175.14 cm**-1
  98:      3176.91 cm**-1
  99:      3178.06 cm**-1
 100:      3193.47 cm**-1
 101:      3193.62 cm**-1

IR SPECTRUM
-----------

 Mode   freq       eps      Int      T**2         TX        TY        TZ
       cm**-1   L/(mol*cm) km/mol    a.u.
----------------------------------------------------------------------------
  6:     86.35   0.000099    0.50  0.000356  ( 0.000043  0.000013 -0.018881)
  7:     86.54   0.000002    0.01  0.000008  (-0.000059 -0.000016 -0.002805)
  8:    128.97   0.000932    4.71  0.002255  ( 0.000015  0.000001  0.047491)
  9:    165.53   0.000003    0.02  0.000006  (-0.000012 -0.000008  0.002435)
 10:    224.76   0.000000    0.00  0.000000  ( 0.000000 -0.000004  0.000005)
 11:    295.77   0.000003    0.01  0.000003  ( 0.000000  0.000006  0.001693)
 12:    296.40   0.000000    0.00  0.000000  ( 0.000012  0.000005 -0.000073)
 13:    302.23   0.000000    0.00  0.000000  (-0.000009 -0.000007  0.000047)
 14:    323.20   0.000269    1.36  0.000259  (-0.000002  0.000006  0.016103)
 15:    359.29   0.001960    9.90  0.001702  ( 0.035460  0.021094  0.000001)
 16:    367.86   0.000002    0.01  0.000002  ( 0.000794 -0.001219  0.000000)
 17:    389.48   0.001309    6.61  0.001049  ( 0.016530 -0.027846  0.000002)
 18:    393.61   0.000026    0.13  0.000021  (-0.003877 -0.002344 -0.000000)
 19:    423.91   0.000000    0.00  0.000000  (-0.000002  0.000009  0.000046)
 20:    443.38   0.012033   60.81  0.008469  ( 0.079122  0.047000  0.000002)
 21:    455.74   0.000063    0.32  0.000043  ( 0.000012 -0.000005  0.006560)
 22:    478.11   0.000050    0.25  0.000033  ( 0.002983 -0.004869  0.000000)
 23:    488.75   0.000000    0.00  0.000000  (-0.000012  0.000007  0.000034)
 24:    489.02   0.000116    0.59  0.000074  (-0.004404  0.007389 -0.000001)
 25:    501.44   0.000023    0.12  0.000014  (-0.001915  0.003256 -0.000000)
 26:    513.65   0.000298    1.51  0.000181  ( 0.011562  0.006887  0.000000)
 27:    539.88   0.000000    0.00  0.000000  (-0.000017 -0.000005  0.000005)
 28:    553.00   0.001324    6.69  0.000747  (-0.000015  0.000001  0.027329)
 29:    577.74   0.004495   22.71  0.002428  ( 0.000003 -0.000001 -0.049273)
 30:    579.60   0.001481    7.49  0.000798  ( 0.024289  0.014411  0.000009)
 31:    607.43   0.000000    0.00  0.000000  (-0.000005  0.000003 -0.000040)
 32:    654.81   0.000000    0.00  0.000000  ( 0.000008  0.000000  0.000015)
 33:    657.39   0.000279    1.41  0.000132  ( 0.009882  0.005895  0.000000)
 34:    675.81   0.000141    0.71  0.000065  ( 0.000021  0.000007 -0.008075)
 35:    685.24   0.000219    1.11  0.000100  (-0.005122  0.008584 -0.000001)
 36:    688.82   0.000012    0.06  0.000006  (-0.002047 -0.001194 -0.000000)
 37:    737.91   0.000000    0.00  0.000000  ( 0.000003 -0.000008 -0.000022)
 38:    747.80   0.001501    7.58  0.000626  (-0.021506 -0.012795 -0.000000)
 39:    773.01   0.000082    0.41  0.000033  (-0.000000  0.000006 -0.005753)
 40:    776.70   0.000622    3.14  0.000250  ( 0.008066 -0.013600  0.000001)
 41:    777.35   0.000000    0.00  0.000000  ( 0.000000  0.000001  0.000039)
 42:    794.20   0.000715    3.61  0.000281  ( 0.000008 -0.000011  0.016757)
 43:    811.85   0.000000    0.00  0.000000  ( 0.000002  0.000007 -0.000030)
 44:    825.42   0.000000    0.00  0.000000  ( 0.000312 -0.000045  0.000001)
 45:    825.98   0.000165    0.84  0.000063  ( 0.003999 -0.006821  0.000001)
 46:    836.63   0.001525    7.70  0.000569  ( 0.000018  0.000003  0.023847)
 47:    853.93   0.000000    0.00  0.000000  ( 0.000009 -0.000002 -0.000040)
 48:    869.40   0.024106  121.82  0.008653  ( 0.000020 -0.000006 -0.093019)
 49:    914.10   0.000126    0.63  0.000043  ( 0.005637  0.003334 -0.000000)
 50:    962.75   0.000000    0.00  0.000000  ( 0.000016  0.000004 -0.000005)
 51:    968.28   0.000024    0.12  0.000008  ( 0.000013 -0.000012 -0.002810)
 52:    973.90   0.000000    0.00  0.000000  (-0.000011 -0.000009  0.000027)
 53:    979.31   0.000011    0.06  0.000004  ( 0.000005  0.000007  0.001886)
 54:    983.45   0.000000    0.00  0.000000  (-0.000025 -0.000000 -0.000018)
 55:    994.90   0.000153    0.77  0.000048  ( 0.005958  0.003541 -0.000000)
 56:   1008.23   0.000006    0.03  0.000002  (-0.000709  0.001226 -0.000000)
 57:   1042.95   0.000205    1.04  0.000061  (-0.004009  0.006735 -0.000001)
 58:   1135.52   0.002169   10.96  0.000596  ( 0.020970  0.012500  0.000001)
 59:   1153.45   0.002033   10.27  0.000550  ( 0.011877 -0.020222  0.000001)
 60:   1171.82   0.000117    0.59  0.000031  ( 0.002859 -0.004803  0.000000)
 61:   1172.48   0.000090    0.45  0.000024  ( 0.004219  0.002459  0.000000)
 62:   1180.13   0.000199    1.00  0.000053  ( 0.006230  0.003703  0.000000)
 63:   1221.47   0.000102    0.52  0.000026  ( 0.002600 -0.004393  0.000000)
 64:   1223.65   0.000421    2.13  0.000107  (-0.005327  0.008890 -0.000000)
 65:   1237.72   0.000330    1.67  0.000083  ( 0.004642 -0.007856  0.000000)
 66:   1244.52   0.000013    0.07  0.000003  ( 0.000859 -0.001617  0.000000)
 67:   1245.91   0.000141    0.71  0.000035  (-0.005127 -0.003022 -0.000000)
 68:   1255.80   0.000009    0.04  0.000002  (-0.001289 -0.000735 -0.000000)
 69:   1293.84   0.001688    8.53  0.000407  ( 0.010372 -0.017309  0.000001)
 70:   1300.53   0.001266    6.40  0.000304  (-0.014953 -0.008956 -0.000000)
 71:   1346.96   0.000790    3.99  0.000183  ( 0.006971 -0.011590  0.000001)
 72:   1354.33   0.001545    7.81  0.000356  ( 0.016203  0.009668  0.000001)
 73:   1382.00   0.000001    0.01  0.000000  (-0.000447 -0.000240  0.000000)
 74:   1388.65   0.000463    2.34  0.000104  (-0.005192  0.008774 -0.000000)
 75:   1408.00   0.000088    0.45  0.000020  (-0.002256  0.003799 -0.000000)
 76:   1424.03   0.000785    3.97  0.000172  (-0.006711  0.011265 -0.000001)
 77:   1429.92   0.000243    1.23  0.000053  (-0.006251 -0.003739 -0.000000)
 78:   1457.96   0.000003    0.02  0.000001  ( 0.000735  0.000435  0.000000)
 79:   1463.87   0.000096    0.49  0.000021  (-0.003908 -0.002293 -0.000000)
 80:   1466.83   0.000626    3.17  0.000133  (-0.005906  0.009918 -0.000001)
 81:   1493.99   0.000114    0.58  0.000024  ( 0.002510 -0.004188  0.000000)
 82:   1527.29   0.001356    6.85  0.000277  ( 0.008515 -0.014301  0.000001)
 83:   1533.16   0.001416    7.16  0.000288  (-0.014595 -0.008671 -0.000000)
 84:   1552.52   0.000177    0.90  0.000036  ( 0.005111  0.003086  0.000000)
 85:   1568.03   0.002109   10.66  0.000420  ( 0.010470 -0.017608  0.000001)
 86:   1583.56   0.000725    3.66  0.000143  (-0.010269 -0.006117 -0.000000)
 87:   1640.12   0.002498   12.62  0.000475  (-0.018746 -0.011127 -0.000001)
 88:   1646.67   0.000924    4.67  0.000175  ( 0.006716 -0.011402  0.000001)
 89:   1656.41   0.000579    2.93  0.000109  (-0.005319  0.008990 -0.000001)
 90:   1658.99   0.002578   13.03  0.000485  ( 0.018966  0.011187  0.000001)
 91:   2070.06   0.000107    0.54  0.000016  (-0.002054  0.003455 -0.000000)
 92:   3157.42   0.000418    2.11  0.000041  ( 0.005689  0.002998  0.000000)
 93:   3158.88   0.000583    2.95  0.000058  (-0.003451  0.006762 -0.000000)
 94:   3159.94   0.000092    0.46  0.000009  ( 0.002752  0.001214  0.000000)
 95:   3166.60   0.001629    8.23  0.000161  ( 0.009934  0.007868  0.000000)
 96:   3166.77   0.000776    3.92  0.000076  (-0.008505 -0.002027 -0.000000)
 97:   3175.14   0.000986    4.98  0.000097  (-0.005593  0.008101 -0.000001)
 98:   3176.91   0.010806   54.61  0.001062  (-0.027079 -0.018117 -0.000001)
 99:   3178.06   0.008771   44.32  0.000861  (-0.016374  0.024354 -0.000001)
100:   3193.47   0.004327   21.87  0.000423  (-0.016387 -0.012423 -0.000000)
101:   3193.62   0.001951    9.86  0.000191  (-0.009748  0.009779 -0.000001)

--------------------------
THERMOCHEMISTRY AT 298.15K
--------------------------

Temperature         ... 298.15 K
Pressure            ... 1.00 atm
Total Mass          ... 298.34 AMU

Throughout the following assumptions are being made:
  (1) The electronic state is orbitally nondegenerate
  (2) There are no thermally accessible electronically excited states
  (3) Hindered rotations indicated by low frequency modes are not
      treated as such but are treated as vibrations and this may
      cause some error
  (4) All equations used are the standard statistical mechanics
      equations for an ideal gas
  (5) All vibrations are strictly harmonic

freq.      86.35  E(vib)   ...       0.48
freq.      86.54  E(vib)   ...       0.48
freq.     128.97  E(vib)   ...       0.43
freq.     165.53  E(vib)   ...       0.39
freq.     224.76  E(vib)   ...       0.33
freq.     295.77  E(vib)   ...       0.27
freq.     296.40  E(vib)   ...       0.27
freq.     302.23  E(vib)   ...       0.26
freq.     323.20  E(vib)   ...       0.25
freq.     359.29  E(vib)   ...       0.22
freq.     367.86  E(vib)   ...       0.21
freq.     389.48  E(vib)   ...       0.20
freq.     393.61  E(vib)   ...       0.20
freq.     423.91  E(vib)   ...       0.18
freq.     443.38  E(vib)   ...       0.17
freq.     455.74  E(vib)   ...       0.16
freq.     478.11  E(vib)   ...       0.15
freq.     488.75  E(vib)   ...       0.15
freq.     489.02  E(vib)   ...       0.15
freq.     501.44  E(vib)   ...       0.14
freq.     513.65  E(vib)   ...       0.13
freq.     539.88  E(vib)   ...       0.12
freq.     553.00  E(vib)   ...       0.12
freq.     577.74  E(vib)   ...       0.11
freq.     579.60  E(vib)   ...       0.11
freq.     607.43  E(vib)   ...       0.10
freq.     654.81  E(vib)   ...       0.08
freq.     657.39  E(vib)   ...       0.08
freq.     675.81  E(vib)   ...       0.08
freq.     685.24  E(vib)   ...       0.07
freq.     688.82  E(vib)   ...       0.07
freq.     737.91  E(vib)   ...       0.06
freq.     747.80  E(vib)   ...       0.06
freq.     773.01  E(vib)   ...       0.05
freq.     776.70  E(vib)   ...       0.05
freq.     777.35  E(vib)   ...       0.05
freq.     794.20  E(vib)   ...       0.05
freq.     811.85  E(vib)   ...       0.05
freq.     825.42  E(vib)   ...       0.04
freq.     825.98  E(vib)   ...       0.04
freq.     836.63  E(vib)   ...       0.04
freq.     853.93  E(vib)   ...       0.04
freq.     869.40  E(vib)   ...       0.04
freq.     914.10  E(vib)   ...       0.03
freq.     962.75  E(vib)   ...       0.03
freq.     968.28  E(vib)   ...       0.03
freq.     973.90  E(vib)   ...       0.03
freq.     979.31  E(vib)   ...       0.03
freq.     983.45  E(vib)   ...       0.02
freq.     994.90  E(vib)   ...       0.02
freq.    1008.23  E(vib)   ...       0.02
freq.    1042.95  E(vib)   ...       0.02
freq.    1135.52  E(vib)   ...       0.01
freq.    1153.45  E(vib)   ...       0.01
freq.    1171.82  E(vib)   ...       0.01
freq.    1172.48  E(vib)   ...       0.01
freq.    1180.13  E(vib)   ...       0.01
freq.    1221.47  E(vib)   ...       0.01
freq.    1223.65  E(vib)   ...       0.01
freq.    1237.72  E(vib)   ...       0.01
freq.    1244.52  E(vib)   ...       0.01
freq.    1245.91  E(vib)   ...       0.01
freq.    1255.80  E(vib)   ...       0.01
freq.    1293.84  E(vib)   ...       0.01
freq.    1300.53  E(vib)   ...       0.01
freq.    1346.96  E(vib)   ...       0.01
freq.    1354.33  E(vib)   ...       0.01
freq.    1382.00  E(vib)   ...       0.01
freq.    1388.65  E(vib)   ...       0.00
freq.    1408.00  E(vib)   ...       0.00
freq.    1424.03  E(vib)   ...       0.00
freq.    1429.92  E(vib)   ...       0.00
freq.    1457.96  E(vib)   ...       0.00
freq.    1463.87  E(vib)   ...       0.00
freq.    1466.83  E(vib)   ...       0.00
freq.    1493.99  E(vib)   ...       0.00
freq.    1527.29  E(vib)   ...       0.00
freq.    1533.16  E(vib)   ...       0.00
freq.    1552.52  E(vib)   ...       0.00
freq.    1568.03  E(vib)   ...       0.00
freq.    1583.56  E(vib)   ...       0.00
freq.    1640.12  E(vib)   ...       0.00
freq.    1646.67  E(vib)   ...       0.00
freq.    1656.41  E(vib)   ...       0.00
freq.    1658.99  E(vib)   ...       0.00
freq.    2070.06  E(vib)   ...       0.00
freq.    3157.42  E(vib)   ...       0.00
freq.    3158.88  E(vib)   ...       0.00
freq.    3159.94  E(vib)   ...       0.00
freq.    3166.60  E(vib)   ...       0.00
freq.    3166.77  E(vib)   ...       0.00
freq.    3175.14  E(vib)   ...       0.00
freq.    3176.91  E(vib)   ...       0.00
freq.    3178.06  E(vib)   ...       0.00
freq.    3193.47  E(vib)   ...       0.00
freq.    3193.62  E(vib)   ...       0.00

------------
INNER ENERGY
------------

The inner energy is: U= E(el) + E(ZPE) + E(vib) + E(rot) + E(trans)
    E(el)   - is the total energy from the electronic structure calculation
              = E(kin-el) + E(nuc-el) + E(el-el) + E(nuc-nuc)
    E(ZPE)  - the the zero temperature vibrational energy from the frequency calculation
    E(vib)  - the the finite temperature correction to E(ZPE) due to population
              of excited vibrational states
    E(rot)  - is the rotational thermal energy
    E(trans)- is the translational thermal energy

Summary of contributions to the inner energy U:
Electronic energy                ...   -920.29108830 Eh
Zero point energy                ...      0.25403561 Eh     159.41 kcal/mol
Thermal vibrational correction   ...      0.01140995 Eh       7.16 kcal/mol
Thermal rotational correction    ...      0.00141627 Eh       0.89 kcal/mol
Thermal translational correction ...      0.00141627 Eh       0.89 kcal/mol
-----------------------------------------------------------------------
Total thermal energy                   -920.02281018 Eh

Summary of corrections to the electronic energy:
(perhaps to be used in another calculation)
Total thermal correction                  0.01424250 Eh       8.94 kcal/mol
Non-thermal (ZPE) correction              0.25403561 Eh     159.41 kcal/mol
-----------------------------------------------------------------------
Total correction                          0.26827811 Eh     168.35 kcal/mol

--------
ENTHALPY
--------

The enthalpy is H = U + kB*T
                kB is Boltzmann's constant
Total free energy                 ...   -920.02281018 Eh
Thermal Enthalpy correction       ...      0.00094421 Eh       0.59 kcal/mol
-----------------------------------------------------------------------
Total Enthalpy                    ...   -920.02186598 Eh

Note: Rotational entropy computed according to Herzberg
Infrared and Raman Spectra, Chapter V,1, Van Nostrand Reinhold, 1945
Point Group:  Cs, Symmetry Number:   1
Rotational constants in cm-1:     0.011665     0.011070     0.005680

                             ****ORCA TERMINATED NORMALLY****
TOTAL RUN TIME: 0 days 1 hours 10 minutes 6 seconds 420 msec
