                         Program Version 5.0.4 -  RELEASE  -
|  1> !M062X def2-tzvp PAL4 TIGHTOPT FREQ
|  2>
|  3> %freq
|  4> Temp 298.15,10,20,50,100,6000,8000,10000
|  5> end
|  6>
|  7> %geom
|  8> maxiter 5000
|  9> end
| 10>
| 11>
| 12>
| 13>
| 14>
| 15>
| 16>
| 17>
| 18>
| 19> * xyz 0 1
| 20>   C   2.45791983499341     -2.80268931379768     -0.00000793519644
| 21>   C   1.28608761308438     -3.49706883370209     -0.00003643606214
| 22>   C   0.03470547919465     -2.82650100714450     -0.00011895547508
| 23>   C   -1.19909611030651     -3.52926406052669     -0.00014738304165
| 24>   C   -2.38727532547159     -2.86387815648029     -0.00022974228995
| 25>   C   -2.43307513493588     -1.44447575303296     -0.00027036473986
| 26>   C   -3.65942351028343     -0.73056692575933     -0.00034869983218
| 27>   C   -3.68143184744779      0.63183680863156     -0.00038756598292
| 28>   C   -2.47654311552349      1.38171086633990     -0.00035715694906
| 29>   C   -2.47435650264592      2.81046534061019     -0.00039831731937
| 30>   C   -1.28561443050281      3.43802142880253     -0.00036151343355
| 31>   C   -0.02057223287027      2.83388218261706     -0.00029010794623
| 32>   C   1.21086686736911      3.53893902602452     -0.00025402239824
| 33>   C   2.39489324957599      2.86551829309080     -0.00018393811888
| 34>   C   2.43517090494280      1.44582754720977     -0.00014049013964
| 35>   C   3.65975900430544      0.72697243056351     -0.00006992784603
| 36>   C   3.67546036802878     -0.63516446298208     -0.00002698908555
| 37>   C   2.46811813995863     -1.38295180399054     -0.00005240219282
| 38>   C   1.24061543792698     -0.69496199420878     -0.00012711748511
| 39>   C   1.22474219035332      0.72698621586077     -0.00017741356338
| 40>   C   -0.01566516709535      1.42103164152461     -0.00024506128700
| 41>   C   -1.24356348643455      0.69923344199718     -0.00028346088976
| 42>   C   -1.22400277498297     -0.72338676000015     -0.00023734960533
| 43>   C   0.01693487392421     -1.41913103104816     -0.00016297130775
| 44>   H   3.40501735040542     -3.32906588787472      0.00005627444163
| 45>   H   1.29296308352502     -4.58060438188898      0.00000142672494
| 46>   H   -3.32129405982821     -3.41317602901623     -0.00025227227744
| 47>   H   -4.58586789409211     -1.29266910376159     -0.00037146429946
| 48>   H   -4.62408845924854      1.16575491725399     -0.00044556872067
| 49>   H   -3.41518424261775      3.34878172120577     -0.00045725814046
| 50>   H   1.18854626437870      4.62103847897618     -0.00028959104089
| 51>   H   3.33130215861300      3.41052642430950     -0.00015763965944
| 52>   H   4.58800492413600      1.28586263822177     -0.00004835142171
| 53>   H   4.61660270482137     -1.17213723898180      0.00002811587814
| 54>   **                         ****END OF INPUT****
 Total Charge           Charge          ....    0
 Multiplicity           Mult            ....    1
 Number of Electrons    NEL             ....  154
FINAL SINGLE POINT ENERGY      -920.365341687846
FINAL SINGLE POINT ENERGY      -920.368202258587
FINAL SINGLE POINT ENERGY      -920.369604810697
FINAL SINGLE POINT ENERGY      -920.369665215413
FINAL SINGLE POINT ENERGY      -920.369711666007
FINAL SINGLE POINT ENERGY      -920.369732851179
FINAL SINGLE POINT ENERGY      -920.369750186804
FINAL SINGLE POINT ENERGY      -920.369756027419
FINAL SINGLE POINT ENERGY      -920.369758497200
FINAL SINGLE POINT ENERGY      -920.369758999212
FINAL SINGLE POINT ENERGY      -920.369758997040
                    ***********************HURRAY********************

CARTESIAN COORDINATES (ANGSTROEM)
---------------------------------
  C      2.466615   -2.801105    0.000077
  C      1.302686   -3.507715    0.000060
  C      0.048686   -2.844479   -0.000228
  C     -1.200899   -3.458591   -0.000304
  C     -2.402840   -2.884346   -0.000359
  C     -2.440403   -1.440229   -0.000135
  C     -3.660730   -0.730688   -0.000119
  C     -3.677801    0.637906   -0.000153
  C     -2.475399    1.377819   -0.000189
  C     -2.473468    2.822562   -0.000464
  C     -1.286270    3.426649   -0.000571
  C     -0.021901    2.843593   -0.000424
  C      1.215110    3.538151   -0.000190
  C      2.396484    2.860952   -0.000112
  C      2.433947    1.443515   -0.000191
  C      3.659557    0.725579   -0.000095
  C      3.676554   -0.634598   -0.000055
  C      2.469088   -1.383158   -0.000108
  C      1.237937   -0.700912   -0.000276
  C      1.220099    0.730625   -0.000313
  C     -0.018993    1.416890   -0.000434
  C     -1.245306    0.697618   -0.000268
  C     -1.227520   -0.729565   -0.000235
  C      0.016199   -1.417977   -0.000346
  H      3.417098   -3.320864    0.000241
  H      1.306242   -4.589197    0.000195
  H     -3.341182   -3.429157   -0.000759
  H     -4.592996   -1.281814   -0.000044
  H     -4.623495    1.165608   -0.000108
  H     -3.424991    3.343987   -0.000840
  H      1.191644    4.619362   -0.000142
  H      3.333855    3.404034    0.000006
  H      4.586193    1.286841   -0.000023
  H      4.616857   -1.172599    0.000054

 Multiplicity           Mult            ....    1
 Number of Electrons    NEL             ....  154
 Basis Dimension        Dim             ....  804

ORBITAL ENERGIES
----------------

  NO   OCC          E(Eh)            E(eV)
   0   2.0000     -10.572644      -287.6963
   1   2.0000     -10.572589      -287.6948
   2   2.0000     -10.572027      -287.6795
   3   2.0000     -10.571975      -287.6781
   4   2.0000     -10.570907      -287.6490
   5   2.0000     -10.570883      -287.6483
   6   2.0000     -10.570198      -287.6297
   7   2.0000     -10.570093      -287.6268
   8   2.0000     -10.568349      -287.5794
   9   2.0000     -10.567747      -287.5630
  10   2.0000     -10.566652      -287.5332
  11   2.0000     -10.566022      -287.5161
  12   2.0000     -10.564953      -287.4870
  13   2.0000     -10.564928      -287.4863
  14   2.0000     -10.559436      -287.3369
  15   2.0000     -10.559372      -287.3351
  16   2.0000     -10.558440      -287.3098
  17   2.0000     -10.557534      -287.2851
  18   2.0000     -10.556084      -287.2457
  19   2.0000     -10.556061      -287.2450
  20   2.0000     -10.555994      -287.2432
  21   2.0000     -10.555037      -287.2171
  22   2.0000     -10.554852      -287.2121
  23   2.0000     -10.554840      -287.2118
  24   2.0000      -1.030355       -28.0374
  25   2.0000      -0.990728       -26.9591
  26   2.0000      -0.990148       -26.9433
  27   2.0000      -0.939101       -25.5542
  28   2.0000      -0.938172       -25.5290
  29   2.0000      -0.918795       -25.0017
  30   2.0000      -0.886277       -24.1168
  31   2.0000      -0.870039       -23.6750
  32   2.0000      -0.852358       -23.1938
  33   2.0000      -0.848246       -23.0819
  34   2.0000      -0.818712       -22.2783
  35   2.0000      -0.811521       -22.0826
  36   2.0000      -0.735465       -20.0130
  37   2.0000      -0.731696       -19.9105
  38   2.0000      -0.730974       -19.8908
  39   2.0000      -0.726507       -19.7693
  40   2.0000      -0.700560       -19.0632
  41   2.0000      -0.652770       -17.7628
  42   2.0000      -0.641690       -17.4613
  43   2.0000      -0.629475       -17.1289
  44   2.0000      -0.617931       -16.8148
  45   2.0000      -0.601751       -16.3745
  46   2.0000      -0.601391       -16.3647
  47   2.0000      -0.556479       -15.1426
  48   2.0000      -0.543673       -14.7941
  49   2.0000      -0.541931       -14.7467
  50   2.0000      -0.541253       -14.7282
  51   2.0000      -0.524387       -14.2693
  52   2.0000      -0.521270       -14.1845
  53   2.0000      -0.519226       -14.1289
  54   2.0000      -0.504374       -13.7247
  55   2.0000      -0.498062       -13.5530
  56   2.0000      -0.495499       -13.4832
  57   2.0000      -0.477311       -12.9883
  58   2.0000      -0.476320       -12.9613
  59   2.0000      -0.472007       -12.8440
  60   2.0000      -0.471402       -12.8275
  61   2.0000      -0.447774       -12.1846
  62   2.0000      -0.443341       -12.0639
  63   2.0000      -0.437180       -11.8963
  64   2.0000      -0.436983       -11.8909
  65   2.0000      -0.409954       -11.1554
  66   2.0000      -0.409514       -11.1434
  67   2.0000      -0.399458       -10.8698
  68   2.0000      -0.391184       -10.6447
  69   2.0000      -0.388970       -10.5844
  70   2.0000      -0.341150        -9.2832
  71   2.0000      -0.333981        -9.0881
  72   2.0000      -0.318038        -8.6543
  73   2.0000      -0.317275        -8.6335
  74   2.0000      -0.260045        -7.0762
  75   2.0000      -0.259816        -7.0700
  76   2.0000      -0.199470        -5.4278
  77   0.0000      -0.154611        -4.2072
  78   0.0000      -0.048483        -1.3193
  79   0.0000      -0.039284        -1.0690
  80   0.0000      -0.004374        -0.1190
  81   0.0000       0.001351         0.0368

MULLIKEN ATOMIC CHARGES
-----------------------
   0 C :   -0.172297
   1 C :   -0.222270
   2 C :    0.078470
   3 C :   -0.040232
   4 C :   -0.305452
   5 C :    0.141066
   6 C :   -0.164041
   7 C :   -0.169165
   8 C :    0.143709
   9 C :   -0.303678
  10 C :   -0.040964
  11 C :    0.081399
  12 C :   -0.227284
  13 C :   -0.167373
  14 C :    0.089604
  15 C :   -0.180634
  16 C :   -0.176069
  17 C :    0.088179
  18 C :    0.049008
  19 C :    0.044309
  20 C :    0.082555
  21 C :   -0.065125
  22 C :   -0.060918
  23 C :    0.085879
  24 H :    0.137127
  25 H :    0.145300
  26 H :    0.146056
  27 H :    0.140477
  28 H :    0.140343
  29 H :    0.146081
  30 H :    0.144605
  31 H :    0.137242
  32 H :    0.136834
  33 H :    0.137256
Sum of atomic charges:   -0.0000000

LOEWDIN ATOMIC CHARGES
----------------------
   0 C :   -0.096463
   1 C :   -0.091000
   2 C :   -0.113143
   3 C :    0.028487
   4 C :   -0.122701
   5 C :   -0.083796
   6 C :   -0.096150
   7 C :   -0.096103
   8 C :   -0.083732
   9 C :   -0.122773
  10 C :    0.028296
  11 C :   -0.113173
  12 C :   -0.090936
  13 C :   -0.096427
  14 C :   -0.091834
  15 C :   -0.096827
  16 C :   -0.096772
  17 C :   -0.091810
  18 C :   -0.001274
  19 C :   -0.001253
  20 C :    0.004525
  21 C :   -0.006663
  22 C :   -0.006660
  23 C :    0.004604
  24 H :    0.152019
  25 H :    0.153565
  26 H :    0.157147
  27 H :    0.152758
  28 H :    0.152731
  29 H :    0.157120
  30 H :    0.153546
  31 H :    0.152011
  32 H :    0.151361
  33 H :    0.151318

  Mayer bond orders larger than 0.100000
B(  0-C ,  1-C ) :   1.5952 B(  0-C , 17-C ) :   1.2367 B(  0-C , 24-H ) :   0.9372
B(  1-C ,  2-C ) :   1.2456 B(  1-C , 25-H ) :   0.9439 B(  2-C ,  3-C ) :   1.1380
B(  2-C , 23-C ) :   1.2812 B(  3-C ,  4-C ) :   1.7789 B(  3-C , 10-C ) :   0.6582
B(  4-C ,  5-C ) :   1.0487 B(  4-C , 26-H ) :   0.9438 B(  5-C ,  6-C ) :   1.2773
B(  5-C , 22-C ) :   1.2961 B(  6-C ,  7-C ) :   1.6040 B(  6-C , 27-H ) :   0.9265
B(  7-C ,  8-C ) :   1.2754 B(  7-C , 28-H ) :   0.9296 B(  8-C ,  9-C ) :   1.0465
B(  8-C , 21-C ) :   1.2973 B(  9-C , 10-C ) :   1.7790 B(  9-C , 29-H ) :   0.9435
B( 10-C , 11-C ) :   1.1390 B( 10-C , 21-C ) :   0.1004 B( 11-C , 12-C ) :   1.2408
B( 11-C , 20-C ) :   1.2792 B( 12-C , 13-C ) :   1.5938 B( 12-C , 30-H ) :   0.9482
B( 13-C , 14-C ) :   1.2372 B( 13-C , 31-H ) :   0.9367 B( 14-C , 15-C ) :   1.2421
B( 14-C , 19-C ) :   1.3191 B( 15-C , 16-C ) :   1.6493 B( 15-C , 32-H ) :   0.9266
B( 16-C , 17-C ) :   1.2443 B( 16-C , 33-H ) :   0.9250 B( 17-C , 18-C ) :   1.3204
B( 18-C , 19-C ) :   1.0783 B( 18-C , 23-C ) :   1.1819 B( 19-C , 20-C ) :   1.1815
B( 20-C , 21-C ) :   1.1498 B( 21-C , 22-C ) :   1.1789 B( 22-C , 23-C ) :   1.1459

FINAL SINGLE POINT ENERGY      -920.369759062205

DIPOLE MOMENT
-------------
                                X             Y             Z
Electronic contribution:     -1.98670      -0.02686      -0.00071
Nuclear contribution   :      2.23398       0.02809       0.00077
                        -----------------------------------------
Total Dipole Moment    :      0.24728       0.00123       0.00005
                        -----------------------------------------
Magnitude (a.u.)       :      0.24729
Magnitude (Debye)      :      0.62855

VIBRATIONAL FREQUENCIES
-----------------------

Scaling factor for frequencies =  1.000000000  (already applied!)

   0:         0.00 cm**-1
   1:         0.00 cm**-1
   2:         0.00 cm**-1
   3:         0.00 cm**-1
   4:         0.00 cm**-1
   5:         0.00 cm**-1
   6:      -321.81 cm**-1 ***imaginary mode***
   7:      -195.12 cm**-1 ***imaginary mode***
   8:        86.34 cm**-1
   9:        91.04 cm**-1
  10:       126.04 cm**-1
  11:       211.60 cm**-1
  12:       272.31 cm**-1
  13:       295.85 cm**-1
  14:       296.93 cm**-1
  15:       320.05 cm**-1
  16:       322.91 cm**-1
  17:       370.58 cm**-1
  18:       372.98 cm**-1
  19:       384.40 cm**-1
  20:       386.10 cm**-1
  21:       415.39 cm**-1
  22:       468.14 cm**-1
  23:       471.55 cm**-1
  24:       481.28 cm**-1
  25:       494.89 cm**-1
  26:       505.54 cm**-1
  27:       507.50 cm**-1
  28:       553.78 cm**-1
  29:       586.78 cm**-1
  30:       596.03 cm**-1
  31:       625.39 cm**-1
  32:       653.55 cm**-1
  33:       657.53 cm**-1
  34:       668.90 cm**-1
  35:       685.17 cm**-1
  36:       685.41 cm**-1
  37:       716.73 cm**-1
  38:       757.88 cm**-1
  39:       778.24 cm**-1
  40:       792.87 cm**-1
  41:       806.41 cm**-1
  42:       821.33 cm**-1
  43:       833.96 cm**-1
  44:       837.46 cm**-1
  45:       848.67 cm**-1
  46:       866.16 cm**-1
  47:       873.30 cm**-1
  48:       876.96 cm**-1
  49:       883.11 cm**-1
  50:       953.33 cm**-1
  51:       981.45 cm**-1
  52:       985.37 cm**-1
  53:       994.78 cm**-1
  54:      1000.36 cm**-1
  55:      1002.96 cm**-1
  56:      1011.42 cm**-1
  57:      1052.89 cm**-1
  58:      1126.04 cm**-1
  59:      1132.34 cm**-1
  60:      1167.38 cm**-1
  61:      1170.53 cm**-1
  62:      1193.64 cm**-1
  63:      1199.92 cm**-1
  64:      1208.89 cm**-1
  65:      1232.77 cm**-1
  66:      1235.39 cm**-1
  67:      1248.31 cm**-1
  68:      1252.12 cm**-1
  69:      1298.24 cm**-1
  70:      1307.52 cm**-1
  71:      1338.72 cm**-1
  72:      1351.66 cm**-1
  73:      1378.10 cm**-1
  74:      1405.58 cm**-1
  75:      1409.28 cm**-1
  76:      1419.51 cm**-1
  77:      1424.64 cm**-1
  78:      1454.33 cm**-1
  79:      1461.79 cm**-1
  80:      1472.08 cm**-1
  81:      1487.89 cm**-1
  82:      1526.39 cm**-1
  83:      1540.47 cm**-1
  84:      1551.05 cm**-1
  85:      1562.56 cm**-1
  86:      1592.81 cm**-1
  87:      1641.62 cm**-1
  88:      1661.62 cm**-1
  89:      1674.30 cm**-1
  90:      1681.21 cm**-1
  91:      1688.32 cm**-1
  92:      3180.57 cm**-1
  93:      3181.12 cm**-1
  94:      3205.51 cm**-1
  95:      3210.40 cm**-1
  96:      3211.25 cm**-1
  97:      3211.56 cm**-1
  98:      3222.55 cm**-1
  99:      3226.77 cm**-1
 100:      3236.61 cm**-1
 101:      3236.75 cm**-1

IR SPECTRUM
-----------

 Mode   freq       eps      Int      T**2         TX        TY        TZ
       cm**-1   L/(mol*cm) km/mol    a.u.
----------------------------------------------------------------------------
  8:     86.34   0.000006    0.03  0.000023  ( 0.000057  0.000014 -0.004846)
  9:     91.04   0.000097    0.49  0.000332  ( 0.000035 -0.000002 -0.018230)
 10:    126.04   0.000870    4.40  0.002154  ( 0.000004 -0.000018  0.046414)
 11:    211.60   0.000830    4.19  0.001223  (-0.000094 -0.000012  0.034978)
 12:    272.31   0.000001    0.00  0.000001  ( 0.000016 -0.000441  0.000660)
 13:    295.85   0.000039    0.20  0.000041  (-0.000076  0.000329 -0.006376)
 14:    296.93   0.000007    0.04  0.000007  (-0.000016 -0.000870 -0.002554)
 15:    320.05   0.333326  1684.49  0.325007  (-0.007069  0.570050 -0.000015)
 16:    322.91   0.000121    0.61  0.000117  (-0.000115  0.010799  0.000188)
 17:    370.58   0.002855   14.43  0.002404  ( 0.000076  0.000084 -0.049029)
 18:    372.98   0.000012    0.06  0.000010  (-0.002654  0.000237  0.001598)
 19:    384.40   0.000616    3.11  0.000500  ( 0.022300  0.001634  0.000097)
 20:    386.10   0.034595  174.83  0.027961  ( 0.002720 -0.167194  0.000004)
 21:    415.39   0.339375  1715.06  0.254955  ( 0.006068 -0.504894  0.000012)
 22:    468.14   0.001573    7.95  0.001048  ( 0.000077 -0.000019  0.032379)
 23:    471.55   0.000002    0.01  0.000001  ( 0.001092  0.000005  0.000269)
 24:    481.28   0.000001    0.01  0.000001  (-0.000037  0.000009  0.000951)
 25:    494.89   0.000006    0.03  0.000004  ( 0.001105  0.001662  0.000000)
 26:    505.54   0.049074  248.00  0.030293  ( 0.001830 -0.174039  0.000005)
 27:    507.50   0.000347    1.75  0.000214  (-0.014069  0.003950 -0.000033)
 28:    553.78   0.000000    0.00  0.000000  ( 0.000000  0.000076  0.000423)
 29:    586.78   0.030775  155.52  0.016367  ( 0.001585 -0.127922  0.000008)
 30:    596.03   0.002241   11.32  0.001173  (-0.000064  0.000021  0.034253)
 31:    625.39   0.000000    0.00  0.000000  ( 0.000018 -0.000010  0.000193)
 32:    653.55   0.004741   23.96  0.002264  ( 0.000564 -0.047576 -0.000002)
 33:    657.53   0.000058    0.29  0.000027  (-0.000047  0.000027 -0.005242)
 34:    668.90   0.000000    0.00  0.000000  (-0.000013 -0.000113 -0.000351)
 35:    685.17   0.000033    0.17  0.000015  (-0.003066  0.002342 -0.000009)
 36:    685.41   0.000271    1.37  0.000123  (-0.000450 -0.011102  0.000001)
 37:    716.73   0.000097    0.49  0.000042  ( 0.000097 -0.000027  0.006499)
 38:    757.88   0.000967    4.89  0.000398  (-0.019954  0.000115 -0.000004)
 39:    778.24   0.018859   95.30  0.007562  ( 0.000966 -0.086955  0.000003)
 40:    792.87   0.000000    0.00  0.000000  ( 0.000017  0.000004 -0.000181)
 41:    806.41   0.000004    0.02  0.000002  (-0.000010 -0.000220  0.001270)
 42:    821.33   0.039185  198.02  0.014888  (-0.001493  0.122008 -0.000005)
 43:    833.96   0.000207    1.05  0.000078  ( 0.008806  0.000032 -0.000001)
 44:    837.46   0.003008   15.20  0.001121  (-0.000032 -0.000037 -0.033479)
 45:    848.67   0.000008    0.04  0.000003  (-0.000031  0.000176 -0.001703)
 46:    866.16   0.000001    0.00  0.000000  ( 0.000011 -0.000162  0.000535)
 47:    873.30   0.011498   58.10  0.004109  ( 0.000090 -0.000172 -0.064098)
 48:    876.96   0.089787  453.75  0.031951  (-0.002236  0.178733 -0.000064)
 49:    883.11   0.011167   56.43  0.003946  ( 0.000015  0.000011  0.062817)
 50:    953.33   0.000000    0.00  0.000000  (-0.000030  0.000018 -0.000080)
 51:    981.45   0.000004    0.02  0.000001  ( 0.000012  0.000014  0.001163)
 52:    985.37   0.000000    0.00  0.000000  (-0.000028 -0.000017  0.000198)
 53:    994.78   0.000000    0.00  0.000000  (-0.000007  0.000007  0.000255)
 54:   1000.36   0.000004    0.02  0.000001  (-0.000027  0.000021 -0.001096)
 55:   1002.96   0.000044    0.22  0.000014  ( 0.003666  0.000560  0.000009)
 56:   1011.42   0.012930   65.34  0.003990  ( 0.000775 -0.063158  0.000003)
 57:   1052.89   0.000407    2.06  0.000121  ( 0.010984 -0.000273  0.000012)
 58:   1126.04   0.089260  451.08  0.024737  (-0.001968  0.157268 -0.000008)
 59:   1132.34   0.000692    3.50  0.000191  ( 0.013705  0.001663 -0.000009)
 60:   1167.38   0.000969    4.90  0.000259  ( 0.000254 -0.016090  0.000001)
 61:   1170.53   0.000844    4.27  0.000225  (-0.015003  0.000045 -0.000013)
 62:   1193.64   0.000078    0.40  0.000020  (-0.004448  0.000814  0.000005)
 63:   1199.92   0.007805   39.44  0.002030  ( 0.000626 -0.045049  0.000001)
 64:   1208.89   0.000041    0.21  0.000011  (-0.003213 -0.000471  0.000007)
 65:   1232.77   0.000172    0.87  0.000043  (-0.006571  0.000520 -0.000002)
 66:   1235.39   0.000772    3.90  0.000195  ( 0.000136 -0.013960 -0.000000)
 67:   1248.31   0.000018    0.09  0.000005  (-0.001262  0.001711 -0.000001)
 68:   1252.12   0.003317   16.76  0.000827  (-0.000044  0.028753 -0.000001)
 69:   1298.24   0.027686  139.92  0.006655  ( 0.000977 -0.081573  0.000004)
 70:   1307.52   0.002923   14.77  0.000698  (-0.026414  0.000168 -0.000011)
 71:   1338.72   0.000517    2.61  0.000120  ( 0.010976  0.000068 -0.000012)
 72:   1351.66   0.027741  140.19  0.006405  (-0.001199  0.080020 -0.000006)
 73:   1378.10   0.000372    1.88  0.000084  (-0.009177  0.000085 -0.000010)
 74:   1405.58   0.027548  139.22  0.006116  ( 0.000850 -0.078202  0.000003)
 75:   1409.28   0.000004    0.02  0.000001  ( 0.000862  0.000446 -0.000015)
 76:   1419.51   0.000038    0.19  0.000008  (-0.002764 -0.000830 -0.000003)
 77:   1424.64   0.008650   43.71  0.001895  ( 0.000613 -0.043523  0.000002)
 78:   1454.33   0.000146    0.74  0.000031  ( 0.005531  0.000910  0.000006)
 79:   1461.79   0.000463    2.34  0.000099  ( 0.009853  0.001312  0.000002)
 80:   1472.08   0.011979   60.54  0.002539  ( 0.000913 -0.050384  0.000004)
 81:   1487.89   0.012825   64.81  0.002690  (-0.000744  0.051858 -0.000001)
 82:   1526.39   0.001057    5.34  0.000216  ( 0.014698  0.000403 -0.000007)
 83:   1540.47   0.000013    0.07  0.000003  ( 0.001111  0.001176  0.000002)
 84:   1551.05   0.005597   28.28  0.001126  ( 0.000381 -0.033554  0.000002)
 85:   1562.56   0.017673   89.31  0.003530  ( 0.000717 -0.059406  0.000004)
 86:   1592.81   0.032229  162.87  0.006314  ( 0.001020 -0.079456  0.000002)
 87:   1641.62   0.000007    0.04  0.000001  (-0.001149 -0.000009 -0.000013)
 88:   1661.62   0.025451  128.62  0.004780  ( 0.000941 -0.069130  0.000003)
 89:   1674.30   0.000025    0.13  0.000005  ( 0.002121 -0.000360 -0.000004)
 90:   1681.21   0.001335    6.74  0.000248  ( 0.000458  0.015732  0.000002)
 91:   1688.32   0.000706    3.57  0.000130  (-0.011411  0.000505 -0.000008)
 92:   3180.57   0.007880   39.82  0.000773  ( 0.000447 -0.027801  0.000000)
 93:   3181.12   0.000915    4.63  0.000090  (-0.000025 -0.009476  0.000001)
 94:   3205.51   0.000193    0.97  0.000019  ( 0.000109 -0.004331  0.000000)
 95:   3210.40   0.000999    5.05  0.000097  ( 0.000351 -0.009849  0.000000)
 96:   3211.25   0.000237    1.20  0.000023  (-0.003850  0.002873 -0.000000)
 97:   3211.56   0.000253    1.28  0.000025  (-0.003846 -0.003135 -0.000000)
 98:   3222.55   0.002127   10.75  0.000206  (-0.014350 -0.000185 -0.000001)
 99:   3226.77   0.001176    5.94  0.000114  (-0.010663 -0.000188  0.000000)
100:   3236.61   0.001944    9.83  0.000187  ( 0.003203 -0.013311  0.000001)
101:   3236.75   0.000923    4.66  0.000089  (-0.008003 -0.004992 -0.000001)

--------------------------
THERMOCHEMISTRY AT 10000.00K
--------------------------

Temperature         ... 10000.00 K
Pressure            ... 1.00 atm
Total Mass          ... 298.34 AMU

Throughout the following assumptions are being made:
  (1) The electronic state is orbitally nondegenerate
  (2) There are no thermally accessible electronically excited states
  (3) Hindered rotations indicated by low frequency modes are not
      treated as such but are treated as vibrations and this may
      cause some error
  (4) All equations used are the standard statistical mechanics
      equations for an ideal gas
  (5) All vibrations are strictly harmonic

freq.      86.34  E(vib)   ...      19.75
freq.      91.04  E(vib)   ...      19.74
freq.     126.04  E(vib)   ...      19.69
freq.     211.60  E(vib)   ...      19.57
freq.     272.31  E(vib)   ...      19.49
freq.     295.85  E(vib)   ...      19.45
freq.     296.93  E(vib)   ...      19.45
freq.     320.05  E(vib)   ...      19.42
freq.     322.91  E(vib)   ...      19.41
freq.     370.58  E(vib)   ...      19.35
freq.     372.98  E(vib)   ...      19.34
freq.     384.40  E(vib)   ...      19.33
freq.     386.10  E(vib)   ...      19.33
freq.     415.39  E(vib)   ...      19.28
freq.     468.14  E(vib)   ...      19.21
freq.     471.55  E(vib)   ...      19.21
freq.     481.28  E(vib)   ...      19.19
freq.     494.89  E(vib)   ...      19.17
freq.     505.54  E(vib)   ...      19.16
freq.     507.50  E(vib)   ...      19.16
freq.     553.78  E(vib)   ...      19.09
freq.     586.78  E(vib)   ...      19.05
freq.     596.03  E(vib)   ...      19.03
freq.     625.39  E(vib)   ...      18.99
freq.     653.55  E(vib)   ...      18.95
freq.     657.53  E(vib)   ...      18.95
freq.     668.90  E(vib)   ...      18.93
freq.     685.17  E(vib)   ...      18.91
freq.     685.41  E(vib)   ...      18.91
freq.     716.73  E(vib)   ...      18.87
freq.     757.88  E(vib)   ...      18.81
freq.     778.24  E(vib)   ...      18.78
freq.     792.87  E(vib)   ...      18.76
freq.     806.41  E(vib)   ...      18.74
freq.     821.33  E(vib)   ...      18.72
freq.     833.96  E(vib)   ...      18.70
freq.     837.46  E(vib)   ...      18.70
freq.     848.67  E(vib)   ...      18.68
freq.     866.16  E(vib)   ...      18.66
freq.     873.30  E(vib)   ...      18.65
freq.     876.96  E(vib)   ...      18.65
freq.     883.11  E(vib)   ...      18.64
freq.     953.33  E(vib)   ...      18.54
freq.     981.45  E(vib)   ...      18.50
freq.     985.37  E(vib)   ...      18.50
freq.     994.78  E(vib)   ...      18.48
freq.    1000.36  E(vib)   ...      18.48
freq.    1002.96  E(vib)   ...      18.47
freq.    1011.42  E(vib)   ...      18.46
freq.    1052.89  E(vib)   ...      18.41
freq.    1126.04  E(vib)   ...      18.31
freq.    1132.34  E(vib)   ...      18.30
freq.    1167.38  E(vib)   ...      18.25
freq.    1170.53  E(vib)   ...      18.25
freq.    1193.64  E(vib)   ...      18.21
freq.    1199.92  E(vib)   ...      18.21
freq.    1208.89  E(vib)   ...      18.19
freq.    1232.77  E(vib)   ...      18.16
freq.    1235.39  E(vib)   ...      18.16
freq.    1248.31  E(vib)   ...      18.14
freq.    1252.12  E(vib)   ...      18.14
freq.    1298.24  E(vib)   ...      18.07
freq.    1307.52  E(vib)   ...      18.06
freq.    1338.72  E(vib)   ...      18.02
freq.    1351.66  E(vib)   ...      18.00
freq.    1378.10  E(vib)   ...      17.97
freq.    1405.58  E(vib)   ...      17.93
freq.    1409.28  E(vib)   ...      17.93
freq.    1419.51  E(vib)   ...      17.91
freq.    1424.64  E(vib)   ...      17.91
freq.    1454.33  E(vib)   ...      17.87
freq.    1461.79  E(vib)   ...      17.86
freq.    1472.08  E(vib)   ...      17.84
freq.    1487.89  E(vib)   ...      17.82
freq.    1526.39  E(vib)   ...      17.77
freq.    1540.47  E(vib)   ...      17.75
freq.    1551.05  E(vib)   ...      17.74
freq.    1562.56  E(vib)   ...      17.72
freq.    1592.81  E(vib)   ...      17.68
freq.    1641.62  E(vib)   ...      17.62
freq.    1661.62  E(vib)   ...      17.59
freq.    1674.30  E(vib)   ...      17.57
freq.    1681.21  E(vib)   ...      17.57
freq.    1688.32  E(vib)   ...      17.56
freq.    3180.57  E(vib)   ...      15.67
freq.    3181.12  E(vib)   ...      15.67
freq.    3205.51  E(vib)   ...      15.64
freq.    3210.40  E(vib)   ...      15.64
freq.    3211.25  E(vib)   ...      15.63
freq.    3211.56  E(vib)   ...      15.63
freq.    3222.55  E(vib)   ...      15.62
freq.    3226.77  E(vib)   ...      15.62
freq.    3236.61  E(vib)   ...      15.60
freq.    3236.75  E(vib)   ...      15.60

------------
INNER ENERGY
------------

The inner energy is: U= E(el) + E(ZPE) + E(vib) + E(rot) + E(trans)
    E(el)   - is the total energy from the electronic structure calculation
              = E(kin-el) + E(nuc-el) + E(el-el) + E(nuc-nuc)
    E(ZPE)  - the the zero temperature vibrational energy from the frequency calculation
    E(vib)  - the the finite temperature correction to E(ZPE) due to population
              of excited vibrational states
    E(rot)  - is the rotational thermal energy
    E(trans)- is the translational thermal energy

Summary of contributions to the inner energy U:
Electronic energy                ...   -920.36975906 Eh
Zero point energy                ...      0.25262539 Eh     158.52 kcal/mol
Thermal vibrational correction   ...      2.73481225 Eh    1716.12 kcal/mol
Thermal rotational correction    ...      0.04750198 Eh      29.81 kcal/mol
Thermal translational correction ...      0.04750198 Eh      29.81 kcal/mol
-----------------------------------------------------------------------
Total thermal energy                   -917.28731747 Eh

Summary of corrections to the electronic energy:
(perhaps to be used in another calculation)
Total thermal correction                  2.82981620 Eh    1775.73 kcal/mol
Non-thermal (ZPE) correction              0.25262539 Eh     158.52 kcal/mol
-----------------------------------------------------------------------
Total correction                          3.08244159 Eh    1934.26 kcal/mol

--------
ENTHALPY
--------

The enthalpy is H = U + kB*T
                kB is Boltzmann's constant
Total free energy                 ...   -917.28731747 Eh
Thermal Enthalpy correction       ...      0.03166893 Eh      19.87 kcal/mol
-----------------------------------------------------------------------
Total Enthalpy                    ...   -917.25564854 Eh

Note: Only C1 symmetry has been detected, increase convergence thresholds
      if your molecule has a higher symmetry. Symmetry factor of 1.0 is
      used for the rotational entropy correction.

Note: Rotational entropy computed according to Herzberg

Rotational constants in cm-1:     0.011618     0.011208     0.005705

                             ****ORCA TERMINATED NORMALLY****
TOTAL RUN TIME: 0 days 8 hours 14 minutes 21 seconds 201 msec
