                         Program Version 5.0.4 -  RELEASE  -
|  1> !M062x def2-tzvp opt freq tightscf
|  2>
|  3> %freq
|  4> Temp 298.15,10,20,50,100,6000,8000,10000
|  5> end
|  6>
|  7> %maxcore 4000
|  8> %pal
|  9> nprocs 3
| 10> end
| 11>
| 12>
| 13> %geom
| 14>   maxiter 2000
| 15>   end
| 16>
| 17> * xyz 0 1
| 18>   C   2.46362427987247     -2.85071308273857     -0.00000218907091
| 19>   C   1.27719400513090     -3.52585311672403     -0.00003902795947
| 20>   C   0.05064934326115     -2.82613554872827     -0.00011828018749
| 21>   C   -1.19925193688694     -3.46606389677068     -0.00015928151260
| 22>   C   -2.39885271805658     -2.87183824187673     -0.00023283554738
| 23>   C   -2.43518053153382     -1.44080024452875     -0.00027277196623
| 24>   C   -3.66777674509120     -0.75191121775761     -0.00034379554662
| 25>   C   -3.71279324924276      0.61270000430768     -0.00038290810371
| 26>   C   -2.51870888891228      1.35470401292599     -0.00035207453727
| 27>   C   -2.33852946574720      2.75004532075493     -0.00038523866368
| 28>   C   -1.29227857579710      3.37936032270345     -0.00036005870682
| 29>   C   0.02296635156368      2.87874227377718     -0.00029143038758
| 30>   C   1.23211767469076      3.59211777508479     -0.00026457178571
| 31>   C   2.42594730830480      2.92563510630820     -0.00019121984698
| 32>   C   2.44893445959464      1.52227723319545     -0.00014614397662
| 33>   C   3.55845924150033      0.65762020353451     -0.00006795876215
| 34>   C   3.57066637986837     -0.56331157183495     -0.00002324805222
| 35>   C   2.47403114247392     -1.44414615823703     -0.00004617494814
| 36>   C   1.25557023434205     -0.69183165762109     -0.00012491861115
| 37>   C   1.23800989899349      0.75081893774134     -0.00017659337158
| 38>   C   -0.00359548669936      1.44369816359284     -0.00024809051538
| 39>   C   -1.24385874208543      0.70472511229996     -0.00028011039122
| 40>   C   -1.22033926149096     -0.71624674943317     -0.00023589301594
| 41>   C   0.03056944314590     -1.40895937212992     -0.00016349124726
| 42>   H   3.40592714860256     -3.38099880595279      0.00006084796734
| 43>   H   1.25543248807529     -4.60779790743838     -0.00000593698860
| 44>   H   -3.32874432396662     -3.42840544994019     -0.00026138694326
| 45>   H   -4.65611295060898      1.14148914368134     -0.00043697075864
| 46>   H   1.19941226127863      4.67287271493635     -0.00030009286005
| 47>   H   3.36338199069149      3.46449630946482     -0.00016807868239
| 48> **                         ****END OF INPUT****
 Total Charge           Charge          ....    0
 Multiplicity           Mult            ....    1
 Number of Electrons    NEL             ....  150
FINAL SINGLE POINT ENERGY      -917.736950508134
FINAL SINGLE POINT ENERGY      -917.746306789732
FINAL SINGLE POINT ENERGY      -917.751679952918
FINAL SINGLE POINT ENERGY      -917.752570094618
FINAL SINGLE POINT ENERGY      -917.753035216139
FINAL SINGLE POINT ENERGY      -917.753248299290
FINAL SINGLE POINT ENERGY      -917.753408155834
FINAL SINGLE POINT ENERGY      -917.753478418975
FINAL SINGLE POINT ENERGY      -917.753529358473
FINAL SINGLE POINT ENERGY      -917.753564696062
FINAL SINGLE POINT ENERGY      -917.753579688691
FINAL SINGLE POINT ENERGY      -917.753583596468
                    ***********************HURRAY********************

CARTESIAN COORDINATES (ANGSTROEM)
---------------------------------
  C      2.474452   -2.848802   -0.000006
  C      1.285183   -3.531522   -0.000037
  C      0.069796   -2.832479   -0.000113
  C     -1.210464   -3.407694   -0.000154
  C     -2.418325   -2.989278   -0.000225
  C     -2.447356   -1.366436   -0.000272
  C     -3.587856   -0.733790   -0.000336
  C     -3.739230    0.624614   -0.000387
  C     -2.535347    1.355187   -0.000358
  C     -2.343312    2.754874   -0.000391
  C     -1.296421    3.379663   -0.000363
  C      0.022496    2.878260   -0.000291
  C      1.228703    3.589623   -0.000260
  C      2.425468    2.922327   -0.000189
  C      2.446699    1.522628   -0.000146
  C      3.556622    0.653955   -0.000070
  C      3.582741   -0.565217   -0.000027
  C      2.483530   -1.448672   -0.000049
  C      1.261250   -0.696670   -0.000127
  C      1.236505    0.749687   -0.000176
  C     -0.004383    1.443794   -0.000250
  C     -1.246332    0.705446   -0.000283
  C     -1.200260   -0.710030   -0.000236
  C      0.040468   -1.412801   -0.000162
  H      3.416319   -3.379536    0.000055
  H      1.265748   -4.612620   -0.000003
  H     -3.384778   -3.452879   -0.000264
  H     -4.684380    1.152714   -0.000444
  H      1.196770    4.670422   -0.000293
  H      3.362564    3.461518   -0.000163

 Multiplicity           Mult            ....    1
 Number of Electrons    NEL             ....  150
 Basis Dimension        Dim             ....  780

ORBITAL ENERGIES
----------------

  NO   OCC          E(Eh)            E(eV)
   0   2.0000     -10.600820      -288.4630
   1   2.0000     -10.597038      -288.3601
   2   2.0000     -10.596459      -288.3443
   3   2.0000     -10.595070      -288.3065
   4   2.0000     -10.594430      -288.2891
   5   2.0000     -10.593573      -288.2658
   6   2.0000     -10.590463      -288.1811
   7   2.0000     -10.589488      -288.1546
   8   2.0000     -10.588942      -288.1398
   9   2.0000     -10.587207      -288.0925
  10   2.0000     -10.585892      -288.0568
  11   2.0000     -10.585430      -288.0442
  12   2.0000     -10.584485      -288.0185
  13   2.0000     -10.581315      -287.9322
  14   2.0000     -10.574611      -287.7498
  15   2.0000     -10.570441      -287.6363
  16   2.0000     -10.569180      -287.6020
  17   2.0000     -10.566858      -287.5388
  18   2.0000     -10.565911      -287.5131
  19   2.0000     -10.561970      -287.4058
  20   2.0000     -10.558564      -287.3131
  21   2.0000     -10.556784      -287.2647
  22   2.0000     -10.554052      -287.1904
  23   2.0000     -10.547618      -287.0153
  24   2.0000      -1.042232       -28.3606
  25   2.0000      -1.004575       -27.3359
  26   2.0000      -1.001754       -27.2591
  27   2.0000      -0.953110       -25.9354
  28   2.0000      -0.949828       -25.8461
  29   2.0000      -0.927503       -25.2386
  30   2.0000      -0.902303       -24.5529
  31   2.0000      -0.878350       -23.9011
  32   2.0000      -0.861729       -23.4488
  33   2.0000      -0.852032       -23.1850
  34   2.0000      -0.829685       -22.5769
  35   2.0000      -0.823162       -22.3994
  36   2.0000      -0.748726       -20.3739
  37   2.0000      -0.745863       -20.2960
  38   2.0000      -0.728208       -19.8155
  39   2.0000      -0.717030       -19.5114
  40   2.0000      -0.708102       -19.2684
  41   2.0000      -0.665741       -18.1157
  42   2.0000      -0.638613       -17.3775
  43   2.0000      -0.620760       -16.8918
  44   2.0000      -0.615542       -16.7497
  45   2.0000      -0.600049       -16.3282
  46   2.0000      -0.599081       -16.3018
  47   2.0000      -0.560825       -15.2608
  48   2.0000      -0.553801       -15.0697
  49   2.0000      -0.546268       -14.8647
  50   2.0000      -0.534834       -14.5536
  51   2.0000      -0.531443       -14.4613
  52   2.0000      -0.530059       -14.4236
  53   2.0000      -0.521593       -14.1933
  54   2.0000      -0.514171       -13.9913
  55   2.0000      -0.489676       -13.3248
  56   2.0000      -0.487293       -13.2599
  57   2.0000      -0.484772       -13.1913
  58   2.0000      -0.473419       -12.8824
  59   2.0000      -0.463650       -12.6166
  60   2.0000      -0.454350       -12.3635
  61   2.0000      -0.432790       -11.7768
  62   2.0000      -0.429519       -11.6878
  63   2.0000      -0.427832       -11.6419
  64   2.0000      -0.423096       -11.5130
  65   2.0000      -0.405044       -11.0218
  66   2.0000      -0.360888        -9.8203
  67   2.0000      -0.344782        -9.3820
  68   2.0000      -0.342011        -9.3066
  69   2.0000      -0.337795        -9.1919
  70   2.0000      -0.332345        -9.0436
  71   2.0000      -0.325535        -8.8583
  72   2.0000      -0.278931        -7.5901
  73   2.0000      -0.269137        -7.3236
  74   2.0000      -0.247181        -6.7261
  75   0.0000      -0.116576        -3.1722
  76   0.0000      -0.059651        -1.6232
  77   0.0000      -0.050939        -1.3861
  78   0.0000      -0.048258        -1.3132
  79   0.0000      -0.043072        -1.1721

MULLIKEN ATOMIC CHARGES
-----------------------
   0 C :   -0.200977
   1 C :   -0.187572
   2 C :    0.034131
   3 C :    0.133482
   4 C :   -0.325229
   5 C :    0.114515
   6 C :   -0.072314
   7 C :   -0.306235
   8 C :    0.098819
   9 C :   -0.063152
  10 C :   -0.073062
  11 C :    0.092949
  12 C :   -0.193466
  13 C :   -0.202978
  14 C :    0.094934
  15 C :   -0.060376
  16 C :   -0.078131
  17 C :    0.081500
  18 C :    0.015087
  19 C :    0.024855
  20 C :    0.034311
  21 C :   -0.062417
  22 C :    0.046585
  23 C :    0.106445
  24 H :    0.153532
  25 H :    0.149898
  26 H :    0.193320
  27 H :    0.148527
  28 H :    0.151388
  29 H :    0.151631
Sum of atomic charges:   -0.0000000

LOEWDIN ATOMIC CHARGES
----------------------
   0 C :   -0.089168
   1 C :   -0.084230
   2 C :   -0.105202
   3 C :    0.052077
   4 C :   -0.044274
   5 C :   -0.088873
   6 C :   -0.030527
   7 C :   -0.113053
   8 C :   -0.082780
   9 C :    0.018825
  10 C :    0.013999
  11 C :   -0.094613
  12 C :   -0.089011
  13 C :   -0.092803
  14 C :   -0.093707
  15 C :    0.023121
  16 C :    0.014136
  17 C :   -0.090422
  18 C :    0.014092
  19 C :    0.012808
  20 C :    0.010980
  21 C :    0.013946
  22 C :   -0.015815
  23 C :    0.003077
  24 H :    0.156750
  25 H :    0.156360
  26 H :    0.161591
  27 H :    0.150537
  28 H :    0.156254
  29 H :    0.155927

  Mayer bond orders larger than 0.100000
B(  0-C ,  1-C ) :   1.4980 B(  0-C , 17-C ) :   1.3267 B(  0-C , 24-H ) :   0.9459
B(  1-C ,  2-C ) :   1.3188 B(  1-C , 25-H ) :   0.9470 B(  2-C ,  3-C ) :   1.1811
B(  2-C , 23-C ) :   1.2575 B(  3-C ,  4-C ) :   2.0129 B(  3-C ,  6-C ) :   0.4652
B(  4-C ,  5-C ) :   0.6763 B(  4-C , 26-H ) :   0.9540 B(  5-C ,  6-C ) :   1.6096
B(  5-C , 22-C ) :   1.2333 B(  6-C ,  7-C ) :   1.5661 B(  7-C ,  8-C ) :   1.2489
B(  7-C , 27-H ) :   0.9691 B(  8-C ,  9-C ) :   1.1394 B(  8-C , 21-C ) :   1.2609
B(  9-C , 10-C ) :   2.5740 B( 10-C , 11-C ) :   1.1266 B( 11-C , 12-C ) :   1.3139
B( 11-C , 20-C ) :   1.2763 B( 12-C , 13-C ) :   1.5035 B( 12-C , 28-H ) :   0.9522
B( 13-C , 14-C ) :   1.3187 B( 13-C , 29-H ) :   0.9510 B( 14-C , 15-C ) :   1.1320
B( 14-C , 19-C ) :   1.2771 B( 15-C , 16-C ) :   2.5636 B( 16-C , 17-C ) :   1.1341
B( 17-C , 18-C ) :   1.2767 B( 18-C , 19-C ) :   1.2184 B( 18-C , 23-C ) :   1.1970
B( 19-C , 20-C ) :   1.1692 B( 20-C , 21-C ) :   1.2059 B( 21-C , 22-C ) :   1.2071
B( 22-C , 23-C ) :   1.1562

FINAL SINGLE POINT ENERGY      -917.753584753527

DIPOLE MOMENT
-------------
                                X             Y             Z
Electronic contribution:     -0.58160       1.47353      -0.00007
Nuclear contribution   :      1.05773      -1.99359       0.00010
                        -----------------------------------------
Total Dipole Moment    :      0.47613      -0.52006       0.00003
                        -----------------------------------------
Magnitude (a.u.)       :      0.70509
Magnitude (Debye)      :      1.79221

VIBRATIONAL FREQUENCIES
-----------------------

Scaling factor for frequencies =  1.000000000  (already applied!)

   0:         0.00 cm**-1
   1:         0.00 cm**-1
   2:         0.00 cm**-1
   3:         0.00 cm**-1
   4:         0.00 cm**-1
   5:         0.00 cm**-1
   6:        78.26 cm**-1
   7:        87.62 cm**-1
   8:       123.20 cm**-1
   9:       164.41 cm**-1
  10:       227.93 cm**-1
  11:       254.27 cm**-1
  12:       278.13 cm**-1
  13:       297.78 cm**-1
  14:       305.89 cm**-1
  15:       346.91 cm**-1
  16:       350.26 cm**-1
  17:       362.15 cm**-1
  18:       377.38 cm**-1
  19:       391.47 cm**-1
  20:       396.43 cm**-1
  21:       404.66 cm**-1
  22:       446.02 cm**-1
  23:       452.03 cm**-1
  24:       466.62 cm**-1
  25:       479.36 cm**-1
  26:       490.31 cm**-1
  27:       501.97 cm**-1
  28:       509.15 cm**-1
  29:       515.66 cm**-1
  30:       530.87 cm**-1
  31:       571.94 cm**-1
  32:       574.38 cm**-1
  33:       605.04 cm**-1
  34:       610.18 cm**-1
  35:       658.38 cm**-1
  36:       679.66 cm**-1
  37:       682.42 cm**-1
  38:       695.19 cm**-1
  39:       722.17 cm**-1
  40:       732.68 cm**-1
  41:       806.32 cm**-1
  42:       818.90 cm**-1
  43:       834.16 cm**-1
  44:       851.72 cm**-1
  45:       854.12 cm**-1
  46:       856.37 cm**-1
  47:       870.84 cm**-1
  48:       874.23 cm**-1
  49:       894.18 cm**-1
  50:       986.97 cm**-1
  51:       993.76 cm**-1
  52:       995.41 cm**-1
  53:      1005.41 cm**-1
  54:      1069.96 cm**-1
  55:      1120.64 cm**-1
  56:      1138.87 cm**-1
  57:      1168.61 cm**-1
  58:      1185.43 cm**-1
  59:      1208.74 cm**-1
  60:      1236.86 cm**-1
  61:      1242.72 cm**-1
  62:      1253.25 cm**-1
  63:      1263.65 cm**-1
  64:      1294.36 cm**-1
  65:      1314.37 cm**-1
  66:      1331.69 cm**-1
  67:      1370.78 cm**-1
  68:      1380.24 cm**-1
  69:      1384.46 cm**-1
  70:      1414.34 cm**-1
  71:      1426.78 cm**-1
  72:      1446.28 cm**-1
  73:      1461.96 cm**-1
  74:      1488.00 cm**-1
  75:      1531.15 cm**-1
  76:      1598.79 cm**-1
  77:      1605.47 cm**-1
  78:      1619.42 cm**-1
  79:      1652.83 cm**-1
  80:      1708.24 cm**-1
  81:      1822.86 cm**-1
  82:      2140.07 cm**-1
  83:      2156.50 cm**-1
  84:      3211.96 cm**-1
  85:      3231.42 cm**-1
  86:      3231.63 cm**-1
  87:      3245.76 cm**-1
  88:      3246.03 cm**-1
  89:      3347.31 cm**-1

IR SPECTRUM
-----------

 Mode   freq       eps      Int      T**2         TX        TY        TZ
       cm**-1   L/(mol*cm) km/mol    a.u.
----------------------------------------------------------------------------
  6:     78.26   0.000082    0.41  0.000325  (-0.000044 -0.000049  0.018033)
  7:     87.62   0.000091    0.46  0.000326  (-0.000005 -0.000002 -0.018048)
  8:    123.20   0.000298    1.51  0.000756  (-0.000012  0.000038 -0.027490)
  9:    164.41   0.000031    0.15  0.000058  ( 0.000007 -0.000016 -0.007611)
 10:    227.93   0.000017    0.09  0.000023  (-0.000000  0.000028 -0.004823)
 11:    254.27   0.000038    0.19  0.000046  ( 0.000000 -0.000011  0.006795)
 12:    278.13   0.002234   11.29  0.002506  ( 0.000026  0.000029 -0.050060)
 13:    297.78   0.058694  296.61  0.061509  (-0.148898  0.198339 -0.000018)
 14:    305.89   0.000005    0.03  0.000005  (-0.000006  0.000009  0.002288)
 15:    346.91   0.004083   20.63  0.003673  ( 0.060138  0.007487  0.000002)
 16:    350.26   0.000000    0.00  0.000000  (-0.000001  0.000011  0.000210)
 17:    362.15   0.001858    9.39  0.001601  (-0.024526  0.031611 -0.000001)
 18:    377.38   0.001701    8.60  0.001406  ( 0.013723 -0.034902 -0.000001)
 19:    391.47   0.001890    9.55  0.001506  ( 0.000020 -0.000025  0.038812)
 20:    396.43   0.010292   52.01  0.008102  ( 0.037586 -0.081786 -0.000004)
 21:    404.66   0.002823   14.27  0.002177  ( 0.017270 -0.043345  0.000000)
 22:    446.02   0.026174  132.27  0.018313  ( 0.090493 -0.100617  0.000008)
 23:    452.03   0.000014    0.07  0.000010  ( 0.000018  0.000017  0.003091)
 24:    466.62   0.013827   69.88  0.009247  (-0.051116 -0.081453  0.000001)
 25:    479.36   0.000106    0.54  0.000069  (-0.000003  0.000004  0.008324)
 26:    490.31   0.000531    2.68  0.000338  ( 0.000000  0.000009 -0.018382)
 27:    501.97   0.017808   89.99  0.011071  ( 0.090638 -0.053437  0.000005)
 28:    509.15   0.004695   23.73  0.002877  ( 0.046118 -0.027397  0.000003)
 29:    515.66   0.003480   17.58  0.002106  ( 0.034187  0.030610 -0.000001)
 30:    530.87   0.000130    0.66  0.000076  ( 0.000003  0.000014 -0.008737)
 31:    571.94   0.001626    8.22  0.000887  (-0.000027 -0.000019  0.029783)
 32:    574.38   0.007895   39.90  0.004289  ( 0.056134 -0.033737  0.000007)
 33:    605.04   0.003952   19.97  0.002039  (-0.028420  0.035083 -0.000001)
 34:    610.18   0.000353    1.78  0.000181  ( 0.000003 -0.000020  0.013438)
 35:    658.38   0.000022    0.11  0.000010  ( 0.000005  0.000021 -0.003230)
 36:    679.66   0.000085    0.43  0.000039  ( 0.005867  0.002188 -0.000001)
 37:    682.42   0.000242    1.22  0.000111  ( 0.000000 -0.000001 -0.010518)
 38:    695.19   0.002963   14.97  0.001330  (-0.032035  0.017430 -0.000003)
 39:    722.17   0.003981   20.12  0.001720  (-0.000009 -0.000026  0.041477)
 40:    732.68   0.000594    3.00  0.000253  (-0.009166 -0.012996  0.000002)
 41:    806.32   0.000480    2.42  0.000186  ( 0.000007  0.000021  0.013627)
 42:    818.90   0.000046    0.23  0.000017  (-0.000003 -0.000010 -0.004168)
 43:    834.16   0.001004    5.08  0.000376  ( 0.005859 -0.018476 -0.000008)
 44:    851.72   0.000763    3.86  0.000280  ( 0.012905  0.010634 -0.000005)
 45:    854.12   0.000015    0.08  0.000006  (-0.000015 -0.000018 -0.002362)
 46:    856.37   0.012097   61.13  0.004408  ( 0.000026  0.000029 -0.066393)
 47:    870.84   0.002394   12.10  0.000858  (-0.017979  0.023122 -0.000021)
 48:    874.23   0.000020    0.10  0.000007  ( 0.000045 -0.000000 -0.002646)
 49:    894.18   0.001566    7.91  0.000546  ( 0.000001 -0.000016  0.023375)
 50:    986.97   0.000087    0.44  0.000028  ( 0.003736  0.003693  0.000000)
 51:    993.76   0.000007    0.03  0.000002  (-0.000019  0.000002  0.001449)
 52:    995.41   0.000011    0.05  0.000003  ( 0.000014  0.000039  0.001828)
 53:   1005.41   0.005974   30.19  0.001854  (-0.030257  0.030637 -0.000004)
 54:   1069.96   0.000989    5.00  0.000289  ( 0.016149 -0.005271  0.000001)
 55:   1120.64   0.001887    9.53  0.000525  ( 0.012083 -0.019477 -0.000000)
 56:   1138.87   0.001729    8.74  0.000474  ( 0.000798  0.021753 -0.000001)
 57:   1168.61   0.001828    9.24  0.000488  (-0.005881  0.021296 -0.000000)
 58:   1185.43   0.004434   22.41  0.001167  ( 0.030922 -0.014523  0.000001)
 59:   1208.74   0.000397    2.00  0.000102  ( 0.007241  0.007067  0.000000)
 60:   1236.86   0.000814    4.11  0.000205  ( 0.008576 -0.011477  0.000001)
 61:   1242.72   0.001666    8.42  0.000418  ( 0.018773  0.008124  0.000000)
 62:   1253.25   0.000186    0.94  0.000046  (-0.004884  0.004739 -0.000000)
 63:   1263.65   0.000219    1.10  0.000054  (-0.001004  0.007277 -0.000000)
 64:   1294.36   0.002093   10.58  0.000505  (-0.015852  0.015916 -0.000001)
 65:   1314.37   0.001008    5.10  0.000239  ( 0.011341 -0.010526  0.000001)
 66:   1331.69   0.000438    2.22  0.000103  ( 0.009158 -0.004345  0.000000)
 67:   1370.78   0.004609   23.29  0.001049  (-0.025075  0.020504 -0.000002)
 68:   1380.24   0.000555    2.80  0.000125  (-0.008460  0.007339 -0.000001)
 69:   1384.46   0.000097    0.49  0.000022  (-0.004657  0.000354  0.000000)
 70:   1414.34   0.002507   12.67  0.000553  ( 0.022728  0.006056  0.000001)
 71:   1426.78   0.001310    6.62  0.000287  (-0.010388  0.013364 -0.000001)
 72:   1446.28   0.001092    5.52  0.000236  ( 0.006421 -0.013943  0.000000)
 73:   1461.96   0.001713    8.66  0.000366  (-0.009163  0.016784 -0.000001)
 74:   1488.00   0.001658    8.38  0.000348  ( 0.017344 -0.006845  0.000001)
 75:   1531.15   0.015607   78.87  0.003181  ( 0.010364 -0.055438  0.000002)
 76:   1598.79   0.014578   73.67  0.002845  ( 0.050229 -0.017960  0.000003)
 77:   1605.47   0.007079   35.77  0.001376  (-0.001537  0.037062 -0.000001)
 78:   1619.42   0.003051   15.42  0.000588  (-0.016660  0.017616 -0.000001)
 79:   1652.83   0.002642   13.35  0.000499  (-0.006499 -0.021366  0.000000)
 80:   1708.24   0.018590   93.95  0.003396  (-0.031575  0.048981 -0.000003)
 81:   1822.86   0.016496   83.36  0.002824  (-0.017185  0.050286 -0.000003)
 82:   2140.07   0.000267    1.35  0.000039  ( 0.005281 -0.003323  0.000001)
 83:   2156.50   0.000159    0.81  0.000023  (-0.004163  0.002391 -0.000000)
 84:   3211.96   0.003963   20.03  0.000385  ( 0.010233 -0.016743  0.000001)
 85:   3231.42   0.000065    0.33  0.000006  ( 0.001558 -0.001968  0.000000)
 86:   3231.63   0.000000    0.00  0.000000  (-0.000177 -0.000077 -0.000000)
 87:   3245.76   0.000109    0.55  0.000010  (-0.001942 -0.002593  0.000000)
 88:   3246.03   0.000143    0.72  0.000014  (-0.002633  0.002607 -0.000000)
 89:   3347.31   0.013796   69.72  0.001286  (-0.030814 -0.018349 -0.000001)

--------------------------
THERMOCHEMISTRY AT 10000.00K
--------------------------

Temperature         ... 10000.00 K
Pressure            ... 1.00 atm
Total Mass          ... 294.31 AMU

Throughout the following assumptions are being made:
  (1) The electronic state is orbitally nondegenerate
  (2) There are no thermally accessible electronically excited states
  (3) Hindered rotations indicated by low frequency modes are not
      treated as such but are treated as vibrations and this may
      cause some error
  (4) All equations used are the standard statistical mechanics
      equations for an ideal gas
  (5) All vibrations are strictly harmonic

freq.      78.26  E(vib)   ...      19.76
freq.      87.62  E(vib)   ...      19.75
freq.     123.20  E(vib)   ...      19.70
freq.     164.41  E(vib)   ...      19.64
freq.     227.93  E(vib)   ...      19.55
freq.     254.27  E(vib)   ...      19.51
freq.     278.13  E(vib)   ...      19.48
freq.     297.78  E(vib)   ...      19.45
freq.     305.89  E(vib)   ...      19.44
freq.     346.91  E(vib)   ...      19.38
freq.     350.26  E(vib)   ...      19.38
freq.     362.15  E(vib)   ...      19.36
freq.     377.38  E(vib)   ...      19.34
freq.     391.47  E(vib)   ...      19.32
freq.     396.43  E(vib)   ...      19.31
freq.     404.66  E(vib)   ...      19.30
freq.     446.02  E(vib)   ...      19.24
freq.     452.03  E(vib)   ...      19.23
freq.     466.62  E(vib)   ...      19.21
freq.     479.36  E(vib)   ...      19.20
freq.     490.31  E(vib)   ...      19.18
freq.     501.97  E(vib)   ...      19.16
freq.     509.15  E(vib)   ...      19.15
freq.     515.66  E(vib)   ...      19.14
freq.     530.87  E(vib)   ...      19.12
freq.     571.94  E(vib)   ...      19.07
freq.     574.38  E(vib)   ...      19.06
freq.     605.04  E(vib)   ...      19.02
freq.     610.18  E(vib)   ...      19.01
freq.     658.38  E(vib)   ...      18.95
freq.     679.66  E(vib)   ...      18.92
freq.     682.42  E(vib)   ...      18.91
freq.     695.19  E(vib)   ...      18.90
freq.     722.17  E(vib)   ...      18.86
freq.     732.68  E(vib)   ...      18.84
freq.     806.32  E(vib)   ...      18.74
freq.     818.90  E(vib)   ...      18.72
freq.     834.16  E(vib)   ...      18.70
freq.     851.72  E(vib)   ...      18.68
freq.     854.12  E(vib)   ...      18.68
freq.     856.37  E(vib)   ...      18.67
freq.     870.84  E(vib)   ...      18.65
freq.     874.23  E(vib)   ...      18.65
freq.     894.18  E(vib)   ...      18.62
freq.     986.97  E(vib)   ...      18.49
freq.     993.76  E(vib)   ...      18.49
freq.     995.41  E(vib)   ...      18.48
freq.    1005.41  E(vib)   ...      18.47
freq.    1069.96  E(vib)   ...      18.38
freq.    1120.64  E(vib)   ...      18.31
freq.    1138.87  E(vib)   ...      18.29
freq.    1168.61  E(vib)   ...      18.25
freq.    1185.43  E(vib)   ...      18.23
freq.    1208.74  E(vib)   ...      18.19
freq.    1236.86  E(vib)   ...      18.16
freq.    1242.72  E(vib)   ...      18.15
freq.    1253.25  E(vib)   ...      18.13
freq.    1263.65  E(vib)   ...      18.12
freq.    1294.36  E(vib)   ...      18.08
freq.    1314.37  E(vib)   ...      18.05
freq.    1331.69  E(vib)   ...      18.03
freq.    1370.78  E(vib)   ...      17.98
freq.    1380.24  E(vib)   ...      17.96
freq.    1384.46  E(vib)   ...      17.96
freq.    1414.34  E(vib)   ...      17.92
freq.    1426.78  E(vib)   ...      17.90
freq.    1446.28  E(vib)   ...      17.88
freq.    1461.96  E(vib)   ...      17.86
freq.    1488.00  E(vib)   ...      17.82
freq.    1531.15  E(vib)   ...      17.76
freq.    1598.79  E(vib)   ...      17.67
freq.    1605.47  E(vib)   ...      17.67
freq.    1619.42  E(vib)   ...      17.65
freq.    1652.83  E(vib)   ...      17.60
freq.    1708.24  E(vib)   ...      17.53
freq.    1822.86  E(vib)   ...      17.38
freq.    2140.07  E(vib)   ...      16.97
freq.    2156.50  E(vib)   ...      16.95
freq.    3211.96  E(vib)   ...      15.63
freq.    3231.42  E(vib)   ...      15.61
freq.    3231.63  E(vib)   ...      15.61
freq.    3245.76  E(vib)   ...      15.59
freq.    3246.03  E(vib)   ...      15.59
freq.    3347.31  E(vib)   ...      15.47

------------
INNER ENERGY
------------

The inner energy is: U= E(el) + E(ZPE) + E(vib) + E(rot) + E(trans)
    E(el)   - is the total energy from the electronic structure calculation
              = E(kin-el) + E(nuc-el) + E(el-el) + E(nuc-nuc)
    E(ZPE)  - the the zero temperature vibrational energy from the frequency calculation
    E(vib)  - the the finite temperature correction to E(ZPE) due to population
              of excited vibrational states
    E(rot)  - is the rotational thermal energy
    E(trans)- is the translational thermal energy

Summary of contributions to the inner energy U:
Electronic energy                ...   -917.75358475 Eh
Zero point energy                ...      0.20404307 Eh     128.04 kcal/mol
Thermal vibrational correction   ...      2.46408874 Eh    1546.24 kcal/mol
Thermal rotational correction    ...      0.04750198 Eh      29.81 kcal/mol
Thermal translational correction ...      0.04750198 Eh      29.81 kcal/mol
-----------------------------------------------------------------------
Total thermal energy                   -914.99044899 Eh

Summary of corrections to the electronic energy:
(perhaps to be used in another calculation)
Total thermal correction                  2.55909269 Eh    1605.85 kcal/mol
Non-thermal (ZPE) correction              0.20404307 Eh     128.04 kcal/mol
-----------------------------------------------------------------------
Total correction                          2.76313577 Eh    1733.89 kcal/mol

--------
ENTHALPY
--------

The enthalpy is H = U + kB*T
                kB is Boltzmann's constant
Total free energy                 ...   -914.99044899 Eh
Thermal Enthalpy correction       ...      0.03166893 Eh      19.87 kcal/mol
-----------------------------------------------------------------------
Total Enthalpy                    ...   -914.95878006 Eh

Note: Rotational entropy computed according to Herzberg
Infrared and Raman Spectra, Chapter V,1, Van Nostrand Reinhold, 1945
Point Group:  Cs, Symmetry Number:   1
Rotational constants in cm-1:     0.011986     0.011592     0.005893

Vibrational entropy computed according to the QRRHO of S. Grimme
Chem.Eur.J. 2012 18 9955

-------
ENTROPY
-------

The entropy contributions are T*S = T*(S(el)+S(vib)+S(rot)+S(trans))
     S(el)   - electronic entropy
     S(vib)  - vibrational entropy

                             ****ORCA TERMINATED NORMALLY****
TOTAL RUN TIME: 0 days 5 hours 16 minutes 4 seconds 596 msec
