                         Program Version 5.0.4 -  RELEASE  -
|  1> !M062X def2-tzvp PAL4 TIGHTOPT FREQ defgrid3 verytightscf
|  2>
|  3> %freq
|  4> Temp 298.15,10,20,50,100,6000,8000,10000
|  5> end
|  6>
|  7> %geom
|  8> maxiter 6000
|  9> end
| 10>
| 11>
| 12>
| 13> * xyz 0 1
| 14>   C   2.45024767781397     -2.79088845422407     -0.00000938991726
| 15>   C   1.27956267261532     -3.48658808767447     -0.00004199041518
| 16>   C   0.03020310625919     -2.81550732119018     -0.00011789062906
| 17>   C   -1.20108929293839     -3.52527633478020     -0.00015283044576
| 18>   C   -2.38858597622182     -2.86504893637874     -0.00022498731516
| 19>   C   -2.44108197261203     -1.44399840937901     -0.00026977722794
| 20>   C   -3.67664815488274     -0.75323846120680     -0.00034508171349
| 21>   C   -3.72619103513175      0.61011442158688     -0.00038695503160
| 22>   C   -2.53310385205262      1.35934451234726     -0.00035606001250
| 23>   C   -2.34752598708266      2.75390994650057     -0.00038920673762
| 24>   C   -1.29670621365080      3.37860291890169     -0.00036230773715
| 25>   C   0.01683951893005      2.87466311961114     -0.00029133231447
| 26>   C   1.24551381641079      3.56424109354326     -0.00025979444256
| 27>   C   2.41912619307901      2.86884590764749     -0.00018732290336
| 28>   C   2.43516507628830      1.45349356601676     -0.00014257265195
| 29>   C   3.65823793814160      0.72790757912234     -0.00006413468989
| 30>   C   3.67028527219667     -0.63084086543001     -0.00002138690896
| 31>   C   2.45820052906728     -1.37288152517845     -0.00005316837364
| 32>   C   1.23136984515361     -0.68204197678717     -0.00012966191552
| 33>   C   1.21554524887866      0.74294181053525     -0.00017432075702
| 34>   C   -0.02154995620554      1.44515622172209     -0.00024986159180
| 35>   C   -1.25909884296142      0.70968573654380     -0.00028126057904
| 36>   C   -1.23394295940125     -0.71246465284663     -0.00023766649264
| 37>   C   0.01011894540401     -1.40778721810258     -0.00016257370372
| 38>   H   3.39881580580318     -3.31417954221239      0.00004974485595
| 39>   H   1.28573635923110     -4.56988777799178     -0.00000784587274
| 40>   H   -1.17447994529076     -4.60821534800633     -0.00011914167385
| 41>   H   -3.32210856630241     -3.41462105732816     -0.00025074935228
| 42>   H   -4.59259219317491     -1.33148181218652     -0.00036964131605
| 43>   H   -4.67219547496003      1.13375240591159     -0.00044538469848
| 44>   H   1.23804129197342      4.64547385631899     -0.00029312160517
| 45>   H   3.36486881829754      3.39701007763111     -0.00016209932451
| 46>   H   4.58719661221870      1.28514520034098     -0.00003968006642
| 47>   H   4.60870298987178     -1.17199696838782      0.00003992508645
| 48>   **                         ****END OF INPUT****
 Total Charge           Charge          ....    0
 Multiplicity           Mult            ....    1
 Number of Electrons    NEL             ....  154
FINAL SINGLE POINT ENERGY      -920.519429219531
                    ***********************HURRAY********************

CARTESIAN COORDINATES (ANGSTROEM)
---------------------------------
  C      2.450259   -2.790902   -0.000010
  C      1.279570   -3.486603   -0.000042
  C      0.030207   -2.815504   -0.000119
  C     -1.201078   -3.525267   -0.000152
  C     -2.388588   -2.865027   -0.000225
  C     -2.441055   -1.443984   -0.000270
  C     -3.676631   -0.753226   -0.000345
  C     -3.726207    0.610123   -0.000387
  C     -2.533123    1.359346   -0.000356
  C     -2.347533    2.753913   -0.000389
  C     -1.296702    3.378618   -0.000363
  C      0.016856    2.874684   -0.000292
  C      1.245521    3.564269   -0.000260
  C      2.419109    2.868839   -0.000187
  C      2.435132    1.453480   -0.000143
  C      3.658215    0.727924   -0.000064
  C      3.670269   -0.630842   -0.000022
  C      2.458196   -1.372883   -0.000053
  C      1.231365   -0.682051   -0.000130
  C      1.215523    0.742919   -0.000175
  C     -0.021576    1.445161   -0.000250
  C     -1.259096    0.709704   -0.000282
  C     -1.233915   -0.712457   -0.000237
  C      0.010127   -1.407788   -0.000162
  H      3.398836   -3.314174    0.000049
  H      1.285717   -4.569901   -0.000008
  H     -1.174516   -4.608207   -0.000119
  H     -3.322077   -3.414655   -0.000250
  H     -4.592537   -1.331531   -0.000370
  H     -4.672191    1.133799   -0.000446
  H      1.237981    4.645500   -0.000293
  H      3.364902    3.396916   -0.000161
  H      4.587206    1.285106   -0.000039
  H      4.608710   -1.171956    0.000040

 Multiplicity           Mult            ....    1
 Number of Electrons    NEL             ....  154
 Basis Dimension        Dim             ....  804

ORBITAL ENERGIES
----------------

  NO   OCC          E(Eh)            E(eV)
   0   2.0000     -10.583656      -287.9959
   1   2.0000     -10.583636      -287.9954
   2   2.0000     -10.569971      -287.6235
   3   2.0000     -10.569373      -287.6073
   4   2.0000     -10.564195      -287.4664
   5   2.0000     -10.564180      -287.4659
   6   2.0000     -10.561470      -287.3922
   7   2.0000     -10.561097      -287.3821
   8   2.0000     -10.561077      -287.3815
   9   2.0000     -10.560892      -287.3765
  10   2.0000     -10.560087      -287.3546
  11   2.0000     -10.560018      -287.3527
  12   2.0000     -10.554477      -287.2019
  13   2.0000     -10.554457      -287.2014
  14   2.0000     -10.553358      -287.1715
  15   2.0000     -10.553342      -287.1710
  16   2.0000     -10.552154      -287.1387
  17   2.0000     -10.552053      -287.1360
  18   2.0000     -10.552043      -287.1357
  19   2.0000     -10.551204      -287.1129
  20   2.0000     -10.551024      -287.1079
  21   2.0000     -10.551021      -287.1079
  22   2.0000     -10.548855      -287.0489
  23   2.0000     -10.546390      -286.9819
  24   2.0000      -1.026503       -27.9326
  25   2.0000      -0.988591       -26.9009
  26   2.0000      -0.987190       -26.8628
  27   2.0000      -0.937380       -25.5074
  28   2.0000      -0.936332       -25.4789
  29   2.0000      -0.915555       -24.9135
  30   2.0000      -0.886216       -24.1152
  31   2.0000      -0.867051       -23.5936
  32   2.0000      -0.850725       -23.1494
  33   2.0000      -0.842507       -22.9258
  34   2.0000      -0.814611       -22.1667
  35   2.0000      -0.814363       -22.1599
  36   2.0000      -0.730584       -19.8802
  37   2.0000      -0.729809       -19.8591
  38   2.0000      -0.725447       -19.7404
  39   2.0000      -0.715417       -19.4675
  40   2.0000      -0.713729       -19.4216
  41   2.0000      -0.652096       -17.7444
  42   2.0000      -0.634173       -17.2567
  43   2.0000      -0.623685       -16.9713
  44   2.0000      -0.615905       -16.7596
  45   2.0000      -0.608164       -16.5490
  46   2.0000      -0.596288       -16.2258
  47   2.0000      -0.556768       -15.1504
  48   2.0000      -0.550480       -14.9793
  49   2.0000      -0.538108       -14.6427
  50   2.0000      -0.534044       -14.5321
  51   2.0000      -0.526016       -14.3136
  52   2.0000      -0.515755       -14.0344
  53   2.0000      -0.512626       -13.9493
  54   2.0000      -0.500263       -13.6128
  55   2.0000      -0.493829       -13.4378
  56   2.0000      -0.483064       -13.1448
  57   2.0000      -0.481378       -13.0990
  58   2.0000      -0.471136       -12.8203
  59   2.0000      -0.470822       -12.8117
  60   2.0000      -0.468309       -12.7433
  61   2.0000      -0.447209       -12.1692
  62   2.0000      -0.443242       -12.0612
  63   2.0000      -0.432754       -11.7758
  64   2.0000      -0.426560       -11.6073
  65   2.0000      -0.409706       -11.1487
  66   2.0000      -0.407365       -11.0850
  67   2.0000      -0.388385       -10.5685
  68   2.0000      -0.388017       -10.5585
  69   2.0000      -0.386112       -10.5066
  70   2.0000      -0.341253        -9.2860
  71   2.0000      -0.331226        -9.0131
  72   2.0000      -0.326658        -8.8888
  73   2.0000      -0.315265        -8.5788
  74   2.0000      -0.313176        -8.5220
  75   2.0000      -0.259326        -7.0566
  76   2.0000      -0.256921        -6.9912
  77   0.0000      -0.045025        -1.2252
  78   0.0000      -0.037565        -1.0222
  79   0.0000      -0.035966        -0.9787
  80   0.0000       0.000331         0.0090
  81   0.0000       0.006324         0.1721

MULLIKEN ATOMIC CHARGES
-----------------------
   0 C :   -0.182945
   1 C :   -0.182359
   2 C :    0.094720
   3 C :   -0.187954
   4 C :   -0.185775
   5 C :    0.090133
   6 C :   -0.154545
   7 C :   -0.237099
   8 C :    0.087078
   9 C :   -0.063683
  10 C :   -0.064930
  11 C :    0.090725
  12 C :   -0.238578
  13 C :   -0.152942
  14 C :    0.089492
  15 C :   -0.185986
  16 C :   -0.187259
  17 C :    0.091697
  18 C :    0.027991
  19 C :    0.057673
  20 C :   -0.029685
  21 C :   -0.027567
  22 C :    0.058277
  23 C :    0.023491
  24 H :    0.134454
  25 H :    0.134623
  26 H :    0.134416
  27 H :    0.134828
  28 H :    0.135686
  29 H :    0.145579
  30 H :    0.145299
  31 H :    0.135713
  32 H :    0.135001
  33 H :    0.134428
Sum of atomic charges:   -0.0000000

LOEWDIN ATOMIC CHARGES
----------------------
   0 C :   -0.098520
   1 C :   -0.098445
   2 C :   -0.092113
   3 C :   -0.099730
   4 C :   -0.099220
   5 C :   -0.092509
   6 C :   -0.094291
   7 C :   -0.099424
   8 C :   -0.094901
   9 C :    0.013213
  10 C :    0.013108
  11 C :   -0.094907
  12 C :   -0.099400
  13 C :   -0.094375
  14 C :   -0.092525
  15 C :   -0.099152
  16 C :   -0.099723
  17 C :   -0.092140
  18 C :   -0.005338
  19 C :   -0.004551
  20 C :    0.010743
  21 C :    0.010731
  22 C :   -0.004547
  23 C :   -0.005339
  24 H :    0.150521
  25 H :    0.150509
  26 H :    0.150517
  27 H :    0.150690
  28 H :    0.151509
  29 H :    0.153449
  30 H :    0.153445
  31 H :    0.151523
  32 H :    0.150679
  33 H :    0.150513

  Mayer bond orders larger than 0.100000
B(  0-C ,  1-C ) :   1.6295 B(  0-C , 17-C ) :   1.2465 B(  0-C , 24-H ) :   0.9339
B(  1-C ,  2-C ) :   1.2472 B(  1-C , 25-H ) :   0.9328 B(  2-C ,  3-C ) :   1.2311
B(  2-C , 23-C ) :   1.3087 B(  3-C ,  4-C ) :   1.6551 B(  3-C , 26-H ) :   0.9347
B(  4-C ,  5-C ) :   1.2275 B(  4-C , 27-H ) :   0.9317 B(  5-C ,  6-C ) :   1.2557
B(  5-C , 22-C ) :   1.2916 B(  6-C ,  7-C ) :   1.5789 B(  6-C , 28-H ) :   0.9404
B(  7-C ,  8-C ) :   1.2787 B(  7-C , 29-H ) :   0.9515 B(  8-C ,  9-C ) :   1.1546
B(  8-C , 21-C ) :   1.2965 B(  9-C , 10-C ) :   2.5405 B( 10-C , 11-C ) :   1.1536
B( 11-C , 12-C ) :   1.2771 B( 11-C , 20-C ) :   1.2949 B( 12-C , 13-C ) :   1.5784
B( 12-C , 30-H ) :   0.9528 B( 13-C , 14-C ) :   1.2555 B( 13-C , 31-H ) :   0.9403
B( 14-C , 15-C ) :   1.2289 B( 14-C , 19-C ) :   1.2919 B( 15-C , 16-C ) :   1.6546
B( 15-C , 32-H ) :   0.9309 B( 16-C , 17-C ) :   1.2315 B( 16-C , 33-H ) :   0.9348
B( 17-C , 18-C ) :   1.3091 B( 18-C , 19-C ) :   1.1597 B( 18-C , 23-C ) :   1.1725
B( 19-C , 20-C ) :   1.1532 B( 20-C , 21-C ) :   1.2347 B( 21-C , 22-C ) :   1.1509
B( 22-C , 23-C ) :   1.1620

FINAL SINGLE POINT ENERGY      -920.519429248985

DIPOLE MOMENT
-------------
                                X             Y             Z
Electronic contribution:     -3.83621       6.45478      -0.00037
Nuclear contribution   :      4.28237      -7.20662       0.00041
                        -----------------------------------------
Total Dipole Moment    :      0.44616      -0.75183       0.00004
                        -----------------------------------------
Magnitude (a.u.)       :      0.87425
Magnitude (Debye)      :      2.22216

VIBRATIONAL FREQUENCIES
-----------------------

Scaling factor for frequencies =  1.000000000  (already applied!)

   0:         0.00 cm**-1
   1:         0.00 cm**-1
   2:         0.00 cm**-1
   3:         0.00 cm**-1
   4:         0.00 cm**-1
   5:         0.00 cm**-1
   6:        90.22 cm**-1
   7:        90.71 cm**-1
   8:       132.09 cm**-1
   9:       171.09 cm**-1
  10:       229.27 cm**-1
  11:       301.85 cm**-1
  12:       304.42 cm**-1
  13:       310.11 cm**-1
  14:       330.00 cm**-1
  15:       360.94 cm**-1
  16:       368.16 cm**-1
  17:       390.15 cm**-1
  18:       395.13 cm**-1
  19:       449.76 cm**-1
  20:       456.87 cm**-1
  21:       463.39 cm**-1
  22:       477.79 cm**-1
  23:       496.18 cm**-1
  24:       502.05 cm**-1
  25:       510.53 cm**-1
  26:       512.84 cm**-1
  27:       552.86 cm**-1
  28:       565.79 cm**-1
  29:       583.84 cm**-1
  30:       589.87 cm**-1
  31:       647.03 cm**-1
  32:       656.25 cm**-1
  33:       685.69 cm**-1
  34:       685.91 cm**-1
  35:       689.25 cm**-1
  36:       699.98 cm**-1
  37:       748.77 cm**-1
  38:       778.23 cm**-1
  39:       797.43 cm**-1
  40:       802.49 cm**-1
  41:       838.29 cm**-1
  42:       838.34 cm**-1
  43:       838.83 cm**-1
  44:       846.34 cm**-1
  45:       868.31 cm**-1
  46:       878.15 cm**-1
  47:       891.20 cm**-1
  48:       917.33 cm**-1
  49:       955.28 cm**-1
  50:       984.43 cm**-1
  51:       990.27 cm**-1
  52:       995.51 cm**-1
  53:      1000.85 cm**-1
  54:      1004.02 cm**-1
  55:      1005.35 cm**-1
  56:      1019.25 cm**-1
  57:      1052.45 cm**-1
  58:      1145.35 cm**-1
  59:      1146.60 cm**-1
  60:      1169.55 cm**-1
  61:      1177.19 cm**-1
  62:      1183.59 cm**-1
  63:      1214.28 cm**-1
  64:      1228.81 cm**-1
  65:      1247.34 cm**-1
  66:      1251.86 cm**-1
  67:      1254.12 cm**-1
  68:      1259.12 cm**-1
  69:      1300.44 cm**-1
  70:      1316.57 cm**-1
  71:      1357.39 cm**-1
  72:      1372.33 cm**-1
  73:      1393.03 cm**-1
  74:      1405.71 cm**-1
  75:      1429.74 cm**-1
  76:      1441.32 cm**-1
  77:      1451.31 cm**-1
  78:      1470.45 cm**-1
  79:      1475.44 cm**-1
  80:      1478.66 cm**-1
  81:      1515.18 cm**-1
  82:      1554.12 cm**-1
  83:      1555.36 cm**-1
  84:      1585.63 cm**-1
  85:      1595.26 cm**-1
  86:      1610.47 cm**-1
  87:      1674.68 cm**-1
  88:      1679.51 cm**-1
  89:      1690.48 cm**-1
  90:      1693.61 cm**-1
  91:      2129.43 cm**-1
  92:      3200.90 cm**-1
  93:      3201.95 cm**-1
  94:      3202.44 cm**-1
  95:      3209.10 cm**-1
  96:      3209.46 cm**-1
  97:      3217.44 cm**-1
  98:      3218.61 cm**-1
  99:      3219.26 cm**-1
 100:      3235.39 cm**-1
 101:      3236.52 cm**-1

IR SPECTRUM
-----------

 Mode   freq       eps      Int      T**2         TX        TY        TZ
       cm**-1   L/(mol*cm) km/mol    a.u.
----------------------------------------------------------------------------
  6:     90.22   0.000070    0.35  0.000240  ( 0.000005 -0.000002 -0.015508)
  7:     90.71   0.000026    0.13  0.000091  ( 0.000006  0.000003 -0.009526)
  8:    132.09   0.000919    4.64  0.002171  (-0.000010 -0.000008  0.046595)
  9:    171.09   0.000007    0.03  0.000012  ( 0.000011 -0.000003  0.003511)
 10:    229.27   0.000000    0.00  0.000000  (-0.000008 -0.000007  0.000049)
 11:    301.85   0.000001    0.01  0.000001  ( 0.000008 -0.000002 -0.001070)
 12:    304.42   0.000000    0.00  0.000000  (-0.000001  0.000004  0.000073)
 13:    310.11   0.000000    0.00  0.000000  (-0.000002 -0.000007  0.000092)
 14:    330.00   0.000311    1.57  0.000294  ( 0.000006  0.000006  0.017146)
 15:    360.94   0.001724    8.71  0.001490  ( 0.033206  0.019691  0.000001)
 16:    368.16   0.000002    0.01  0.000002  ( 0.000767 -0.001204  0.000000)
 17:    390.15   0.001160    5.86  0.000928  ( 0.015540 -0.026196  0.000001)
 18:    395.13   0.000056    0.28  0.000044  (-0.005813 -0.003210  0.000000)
 19:    449.76   0.012813   64.75  0.008890  ( 0.081030  0.048212  0.000002)
 20:    456.87   0.000000    0.00  0.000000  (-0.000006  0.000006 -0.000101)
 21:    463.39   0.000075    0.38  0.000050  ( 0.000004  0.000002  0.007092)
 22:    477.79   0.000066    0.33  0.000043  ( 0.003315 -0.005656  0.000000)
 23:    496.18   0.000061    0.31  0.000038  (-0.003088  0.005376 -0.000000)
 24:    502.05   0.000045    0.23  0.000028  (-0.002602  0.004589 -0.000000)
 25:    510.53   0.000000    0.00  0.000000  ( 0.000001  0.000005  0.000092)
 26:    512.84   0.000382    1.93  0.000232  ( 0.013141  0.007729  0.000000)
 27:    552.86   0.000000    0.00  0.000000  (-0.000002 -0.000001  0.000083)
 28:    565.79   0.001956    9.88  0.001079  (-0.000011 -0.000004  0.032846)
 29:    583.84   0.001535    7.76  0.000821  (-0.024597 -0.014686 -0.000001)
 30:    589.87   0.004839   24.45  0.002560  (-0.000012  0.000003  0.050595)
 31:    647.03   0.000000    0.00  0.000000  ( 0.000010  0.000008 -0.000075)
 32:    656.25   0.000363    1.84  0.000173  ( 0.011324  0.006669  0.000000)
 33:    685.69   0.000000    0.00  0.000000  ( 0.000008 -0.000015 -0.000028)
 34:    685.91   0.000201    1.02  0.000092  ( 0.004827 -0.008260  0.000000)
 35:    689.25   0.000010    0.05  0.000005  ( 0.001970  0.000852  0.000000)
 36:    699.98   0.000105    0.53  0.000047  ( 0.000004  0.000001  0.006858)
 37:    748.77   0.001867    9.43  0.000778  (-0.023974 -0.014258 -0.000001)
 38:    778.23   0.000877    4.43  0.000352  (-0.009627  0.016099 -0.000001)
 39:    797.43   0.000003    0.01  0.000001  ( 0.000003  0.000005 -0.001073)
 40:    802.49   0.000001    0.00  0.000000  (-0.000005 -0.000001  0.000462)
 41:    838.29   0.000222    1.12  0.000083  ( 0.004678 -0.007783 -0.000276)
 42:    838.34   0.002060   10.41  0.000767  (-0.000046  0.000084 -0.027689)
 43:    838.83   0.000004    0.02  0.000001  (-0.001140  0.000077 -0.000016)
 44:    846.34   0.000001    0.00  0.000000  (-0.000001  0.000004  0.000588)
 45:    868.31   0.000437    2.21  0.000157  ( 0.000004  0.000001  0.012539)
 46:    878.15   0.000003    0.02  0.000001  (-0.000004 -0.000003 -0.001033)
 47:    891.20   0.024123  121.91  0.008447  ( 0.000010  0.000000 -0.091907)
 48:    917.33   0.000094    0.47  0.000032  ( 0.004835  0.002916  0.000000)
 49:    955.28   0.000000    0.00  0.000000  ( 0.000007 -0.000002  0.000130)
 50:    984.43   0.000000    0.00  0.000000  ( 0.000004  0.000006  0.000033)
 51:    990.27   0.000033    0.17  0.000010  ( 0.000011 -0.000001 -0.003216)
 52:    995.51   0.000000    0.00  0.000000  ( 0.000001 -0.000001 -0.000285)
 53:   1000.85   0.000030    0.15  0.000009  (-0.000008 -0.000003  0.003035)
 54:   1004.02   0.000000    0.00  0.000000  (-0.000007 -0.000005  0.000371)
 55:   1005.35   0.000173    0.87  0.000054  ( 0.006276  0.003784 -0.000002)
 56:   1019.25   0.000010    0.05  0.000003  (-0.000878  0.001494 -0.000000)
 57:   1052.45   0.000254    1.28  0.000075  (-0.004482  0.007434 -0.000001)
 58:   1145.35   0.001584    8.01  0.000432  ( 0.008284 -0.019053  0.000001)
 59:   1146.60   0.002092   10.57  0.000569  ( 0.021794  0.009713  0.000000)
 60:   1169.55   0.000866    4.38  0.000231  ( 0.007977 -0.012938  0.000001)
 61:   1177.19   0.000044    0.22  0.000012  ( 0.002880  0.001858  0.000000)
 62:   1183.59   0.000207    1.04  0.000054  (-0.006298 -0.003847 -0.000000)
 63:   1214.28   0.000196    0.99  0.000050  (-0.003478  0.006177 -0.000000)
 64:   1228.81   0.000188    0.95  0.000048  ( 0.003530 -0.005945  0.000000)
 65:   1247.34   0.000583    2.95  0.000146  ( 0.006188 -0.010374  0.000001)
 66:   1251.86   0.000167    0.85  0.000042  (-0.005232 -0.003785 -0.000000)
 67:   1254.12   0.000133    0.67  0.000033  (-0.003158  0.004815 -0.000000)
 68:   1259.12   0.000016    0.08  0.000004  (-0.001650 -0.001162 -0.000000)
 69:   1300.44   0.001134    5.73  0.000272  ( 0.008401 -0.014199  0.000001)
 70:   1316.57   0.001549    7.83  0.000367  (-0.016432 -0.009860 -0.000000)
 71:   1357.39   0.000924    4.67  0.000213  ( 0.007568 -0.012460  0.000001)
 72:   1372.33   0.001175    5.94  0.000267  ( 0.014005  0.008428  0.000000)
 73:   1393.03   0.000008    0.04  0.000002  (-0.001112 -0.000694  0.000000)
 74:   1405.71   0.000319    1.61  0.000071  (-0.004483  0.007124 -0.000000)
 75:   1429.74   0.000456    2.30  0.000100  (-0.005123  0.008561 -0.000000)
 76:   1441.32   0.000432    2.18  0.000094  (-0.004932  0.008318 -0.000000)
 77:   1451.31   0.000047    0.24  0.000010  (-0.002726 -0.001656 -0.000000)
 78:   1470.45   0.000036    0.18  0.000008  (-0.002411 -0.001363 -0.000000)
 79:   1475.44   0.000085    0.43  0.000018  (-0.003855 -0.001783 -0.000000)
 80:   1478.66   0.000730    3.69  0.000154  (-0.006168  0.010771 -0.000001)
 81:   1515.18   0.000001    0.01  0.000000  ( 0.000338 -0.000432 -0.000000)
 82:   1554.12   0.002124   10.74  0.000427  (-0.019182 -0.007657 -0.000001)
 83:   1555.36   0.002108   10.65  0.000423  (-0.007629  0.019098 -0.000001)
 84:   1585.63   0.000008    0.04  0.000002  (-0.001089 -0.000611 -0.000000)
 85:   1595.26   0.001627    8.22  0.000318  ( 0.009063 -0.015364  0.000001)
 86:   1610.47   0.000821    4.15  0.000159  ( 0.010850  0.006429  0.000000)
 87:   1674.68   0.002751   13.90  0.000513  (-0.019656 -0.011237 -0.000001)
 88:   1679.51   0.001037    5.24  0.000193  ( 0.006492 -0.012268  0.000001)
 89:   1690.48   0.000161    0.81  0.000030  (-0.003481  0.004193 -0.000000)
 90:   1693.61   0.001559    7.88  0.000287  (-0.014333 -0.009044 -0.000000)
 91:   2129.43   0.000483    2.44  0.000071  (-0.004279  0.007249 -0.000000)
 92:   3200.90   0.000105    0.53  0.000010  ( 0.002898  0.001340  0.000000)
 93:   3201.95   0.000124    0.63  0.000012  ( 0.000648 -0.003412  0.000000)
 94:   3202.44   0.000026    0.13  0.000003  ( 0.001507 -0.000556  0.000000)
 95:   3209.10   0.000681    3.44  0.000066  ( 0.006097  0.005388  0.000000)
 96:   3209.46   0.000342    1.73  0.000033  (-0.005750 -0.000381 -0.000000)
 97:   3217.44   0.000673    3.40  0.000065  (-0.005344  0.006057 -0.000000)
 98:   3218.61   0.003742   18.91  0.000363  (-0.011811 -0.014944 -0.000000)
 99:   3219.26   0.002927   14.79  0.000284  (-0.014213  0.009041 -0.000001)
100:   3235.39   0.000762    3.85  0.000073  (-0.004962 -0.006990  0.000000)
101:   3236.52   0.000715    3.61  0.000069  (-0.008276 -0.000639 -0.000000)

--------------------------
THERMOCHEMISTRY AT 10000.00K
--------------------------

Temperature         ... 10000.00 K
Pressure            ... 1.00 atm
Total Mass          ... 298.34 AMU

Throughout the following assumptions are being made:
  (1) The electronic state is orbitally nondegenerate
  (2) There are no thermally accessible electronically excited states
  (3) Hindered rotations indicated by low frequency modes are not
      treated as such but are treated as vibrations and this may
      cause some error
  (4) All equations used are the standard statistical mechanics
      equations for an ideal gas
  (5) All vibrations are strictly harmonic

freq.      90.22  E(vib)   ...      19.74
freq.      90.71  E(vib)   ...      19.74
freq.     132.09  E(vib)   ...      19.68
freq.     171.09  E(vib)   ...      19.63
freq.     229.27  E(vib)   ...      19.55
freq.     301.85  E(vib)   ...      19.44
freq.     304.42  E(vib)   ...      19.44
freq.     310.11  E(vib)   ...      19.43
freq.     330.00  E(vib)   ...      19.40
freq.     360.94  E(vib)   ...      19.36
freq.     368.16  E(vib)   ...      19.35
freq.     390.15  E(vib)   ...      19.32
freq.     395.13  E(vib)   ...      19.31
freq.     449.76  E(vib)   ...      19.24
freq.     456.87  E(vib)   ...      19.23
freq.     463.39  E(vib)   ...      19.22
freq.     477.79  E(vib)   ...      19.20
freq.     496.18  E(vib)   ...      19.17
freq.     502.05  E(vib)   ...      19.16
freq.     510.53  E(vib)   ...      19.15
freq.     512.84  E(vib)   ...      19.15
freq.     552.86  E(vib)   ...      19.09
freq.     565.79  E(vib)   ...      19.07
freq.     583.84  E(vib)   ...      19.05
freq.     589.87  E(vib)   ...      19.04
freq.     647.03  E(vib)   ...      18.96
freq.     656.25  E(vib)   ...      18.95
freq.     685.69  E(vib)   ...      18.91
freq.     685.91  E(vib)   ...      18.91
freq.     689.25  E(vib)   ...      18.90
freq.     699.98  E(vib)   ...      18.89
freq.     748.77  E(vib)   ...      18.82
freq.     778.23  E(vib)   ...      18.78
freq.     797.43  E(vib)   ...      18.75
freq.     802.49  E(vib)   ...      18.75
freq.     838.29  E(vib)   ...      18.70
freq.     838.34  E(vib)   ...      18.70
freq.     838.83  E(vib)   ...      18.70
freq.     846.34  E(vib)   ...      18.69
freq.     868.31  E(vib)   ...      18.66
freq.     878.15  E(vib)   ...      18.64
freq.     891.20  E(vib)   ...      18.63
freq.     917.33  E(vib)   ...      18.59
freq.     955.28  E(vib)   ...      18.54
freq.     984.43  E(vib)   ...      18.50
freq.     990.27  E(vib)   ...      18.49
freq.     995.51  E(vib)   ...      18.48
freq.    1000.85  E(vib)   ...      18.48
freq.    1004.02  E(vib)   ...      18.47
freq.    1005.35  E(vib)   ...      18.47
freq.    1019.25  E(vib)   ...      18.45
freq.    1052.45  E(vib)   ...      18.41
freq.    1145.35  E(vib)   ...      18.28
freq.    1146.60  E(vib)   ...      18.28
freq.    1169.55  E(vib)   ...      18.25
freq.    1177.19  E(vib)   ...      18.24
freq.    1183.59  E(vib)   ...      18.23
freq.    1214.28  E(vib)   ...      18.19
freq.    1228.81  E(vib)   ...      18.17
freq.    1247.34  E(vib)   ...      18.14
freq.    1251.86  E(vib)   ...      18.14
freq.    1254.12  E(vib)   ...      18.13
freq.    1259.12  E(vib)   ...      18.13
freq.    1300.44  E(vib)   ...      18.07
freq.    1316.57  E(vib)   ...      18.05
freq.    1357.39  E(vib)   ...      18.00
freq.    1372.33  E(vib)   ...      17.98
freq.    1393.03  E(vib)   ...      17.95
freq.    1405.71  E(vib)   ...      17.93
freq.    1429.74  E(vib)   ...      17.90
freq.    1441.32  E(vib)   ...      17.88
freq.    1451.31  E(vib)   ...      17.87
freq.    1470.45  E(vib)   ...      17.84
freq.    1475.44  E(vib)   ...      17.84
freq.    1478.66  E(vib)   ...      17.83
freq.    1515.18  E(vib)   ...      17.79
freq.    1554.12  E(vib)   ...      17.73
freq.    1555.36  E(vib)   ...      17.73
freq.    1585.63  E(vib)   ...      17.69
freq.    1595.26  E(vib)   ...      17.68
freq.    1610.47  E(vib)   ...      17.66
freq.    1674.68  E(vib)   ...      17.57
freq.    1679.51  E(vib)   ...      17.57
freq.    1690.48  E(vib)   ...      17.55
freq.    1693.61  E(vib)   ...      17.55
freq.    2129.43  E(vib)   ...      16.98
freq.    3200.90  E(vib)   ...      15.65
freq.    3201.95  E(vib)   ...      15.65
freq.    3202.44  E(vib)   ...      15.64
freq.    3209.10  E(vib)   ...      15.64
freq.    3209.46  E(vib)   ...      15.64
freq.    3217.44  E(vib)   ...      15.63
freq.    3218.61  E(vib)   ...      15.63
freq.    3219.26  E(vib)   ...      15.62
freq.    3235.39  E(vib)   ...      15.60
freq.    3236.52  E(vib)   ...      15.60

------------
INNER ENERGY
------------

The inner energy is: U= E(el) + E(ZPE) + E(vib) + E(rot) + E(trans)
    E(el)   - is the total energy from the electronic structure calculation
              = E(kin-el) + E(nuc-el) + E(el-el) + E(nuc-nuc)
    E(ZPE)  - the the zero temperature vibrational energy from the frequency calculation
    E(vib)  - the the finite temperature correction to E(ZPE) due to population
              of excited vibrational states
    E(rot)  - is the rotational thermal energy
    E(trans)- is the translational thermal energy

Summary of contributions to the inner energy U:
Electronic energy                ...   -920.51942925 Eh
Zero point energy                ...      0.25824429 Eh     162.05 kcal/mol
Thermal vibrational correction   ...      2.79278659 Eh    1752.50 kcal/mol
Thermal rotational correction    ...      0.04750198 Eh      29.81 kcal/mol
Thermal translational correction ...      0.04750198 Eh      29.81 kcal/mol
-----------------------------------------------------------------------
Total thermal energy                   -917.37339442 Eh

Summary of corrections to the electronic energy:
(perhaps to be used in another calculation)
Total thermal correction                  2.88779054 Eh    1812.11 kcal/mol
Non-thermal (ZPE) correction              0.25824429 Eh     162.05 kcal/mol
-----------------------------------------------------------------------
Total correction                          3.14603483 Eh    1974.16 kcal/mol

--------
ENTHALPY
--------

The enthalpy is H = U + kB*T
                kB is Boltzmann's constant
Total free energy                 ...   -917.37339442 Eh
Thermal Enthalpy correction       ...      0.03166893 Eh      19.87 kcal/mol
-----------------------------------------------------------------------
Total Enthalpy                    ...   -917.34172549 Eh

Note: Rotational entropy computed according to Herzberg
Infrared and Raman Spectra, Chapter V,1, Van Nostrand Reinhold, 1945
Point Group:  Cs, Symmetry Number:   1
Rotational constants in cm-1:     0.011736     0.011123     0.005711

                             ****ORCA TERMINATED NORMALLY****
TOTAL RUN TIME: 0 days 11 hours 19 minutes 48 seconds 500 msec
