                         Program Version 5.0.4 -  RELEASE  -
|  1> !M062X def2-tzvp PAL4 TIGHTOPT FREQ defgrid3 tightscf
|  2>
|  3> %freq
|  4> Temp 298.15,10,20,50,100,6000,8000,10000
|  5> end
|  6>
|  7> %geom
|  8> maxiter 6000
|  9> end
| 10>
| 11>
| 12>
| 13> * xyz 0 1
| 14>   C   2.45791983499341     -2.80268931379768     -0.00000793519644
| 15>   C   1.28608761308438     -3.49706883370209     -0.00003643606214
| 16>   C   0.03470547919465     -2.82650100714450     -0.00011895547508
| 17>   C   -1.19909611030651     -3.52926406052669     -0.00014738304165
| 18>   C   -2.38727532547159     -2.86387815648029     -0.00022974228995
| 19>   C   -2.43307513493588     -1.44447575303296     -0.00027036473986
| 20>   C   -3.65942351028343     -0.73056692575933     -0.00034869983218
| 21>   C   -3.68143184744779      0.63183680863156     -0.00038756598292
| 22>   C   -2.47654311552349      1.38171086633990     -0.00035715694906
| 23>   C   -2.47435650264592      2.81046534061019     -0.00039831731937
| 24>   C   -1.28561443050281      3.43802142880253     -0.00036151343355
| 25>   C   -0.02057223287027      2.83388218261706     -0.00029010794623
| 26>   C   1.21086686736911      3.53893902602452     -0.00025402239824
| 27>   C   2.39489324957599      2.86551829309080     -0.00018393811888
| 28>   C   2.43517090494280      1.44582754720977     -0.00014049013964
| 29>   C   3.65975900430544      0.72697243056351     -0.00006992784603
| 30>   C   3.67546036802878     -0.63516446298208     -0.00002698908555
| 31>   C   2.46811813995863     -1.38295180399054     -0.00005240219282
| 32>   C   1.24061543792698     -0.69496199420878     -0.00012711748511
| 33>   C   1.22474219035332      0.72698621586077     -0.00017741356338
| 34>   C   -0.01566516709535      1.42103164152461     -0.00024506128700
| 35>   C   -1.24356348643455      0.69923344199718     -0.00028346088976
| 36>   C   -1.22400277498297     -0.72338676000015     -0.00023734960533
| 37>   C   0.01693487392421     -1.41913103104816     -0.00016297130775
| 38>   H   3.40501735040542     -3.32906588787472      0.00005627444163
| 39>   H   1.29296308352502     -4.58060438188898      0.00000142672494
| 40>   H   -1.17896310310274     -4.61257131284734     -0.00011513591155
| 41>   H   -3.32129405982821     -3.41317602901623     -0.00025227227744
| 42>   H   -4.58586789409211     -1.29266910376159     -0.00037146429946
| 43>   H   -4.62408845924854      1.16575491725399     -0.00044556872067
| 44>   H   1.18854626437870      4.62103847897618     -0.00028959104089
| 45>   H   3.33130215861300      3.41052642430950     -0.00015763965944
| 46>   H   4.58800492413600      1.28586263822177     -0.00004835142171
| 47>   H   4.61660270482137     -1.17213723898180      0.00002811587814
| 48>   **                         ****END OF INPUT****
 Total Charge           Charge          ....    0
 Multiplicity           Mult            ....    1
 Number of Electrons    NEL             ....  154
FINAL SINGLE POINT ENERGY      -920.492425787437
FINAL SINGLE POINT ENERGY      -920.514552497230
FINAL SINGLE POINT ENERGY      -920.518190475126
FINAL SINGLE POINT ENERGY      -920.519097440561
FINAL SINGLE POINT ENERGY      -920.519277529245
FINAL SINGLE POINT ENERGY      -920.519340014634
FINAL SINGLE POINT ENERGY      -920.519394852753
FINAL SINGLE POINT ENERGY      -920.519417938890
FINAL SINGLE POINT ENERGY      -920.519427388720
FINAL SINGLE POINT ENERGY      -920.519428932133
                    ***********************HURRAY********************

CARTESIAN COORDINATES (ANGSTROEM)
---------------------------------
  C      2.450248   -2.790888   -0.000009
  C      1.279563   -3.486588   -0.000042
  C      0.030203   -2.815507   -0.000118
  C     -1.201089   -3.525276   -0.000153
  C     -2.388586   -2.865049   -0.000225
  C     -2.441082   -1.443998   -0.000270
  C     -3.676648   -0.753238   -0.000345
  C     -3.726191    0.610114   -0.000387
  C     -2.533104    1.359345   -0.000356
  C     -2.347526    2.753910   -0.000389
  C     -1.296706    3.378603   -0.000362
  C      0.016840    2.874663   -0.000291
  C      1.245514    3.564241   -0.000260
  C      2.419126    2.868846   -0.000187
  C      2.435165    1.453494   -0.000143
  C      3.658238    0.727908   -0.000064
  C      3.670285   -0.630841   -0.000021
  C      2.458201   -1.372882   -0.000053
  C      1.231370   -0.682042   -0.000130
  C      1.215545    0.742942   -0.000174
  C     -0.021550    1.445156   -0.000250
  C     -1.259099    0.709686   -0.000281
  C     -1.233943   -0.712465   -0.000238
  C      0.010119   -1.407787   -0.000163
  H      3.398816   -3.314180    0.000050
  H      1.285736   -4.569888   -0.000008
  H     -1.174480   -4.608215   -0.000119
  H     -3.322109   -3.414621   -0.000251
  H     -4.592592   -1.331482   -0.000370
  H     -4.672195    1.133752   -0.000445
  H      1.238041    4.645474   -0.000293
  H      3.364869    3.397010   -0.000162
  H      4.587197    1.285145   -0.000040
  H      4.608703   -1.171997    0.000040

 Multiplicity           Mult            ....    1
 Number of Electrons    NEL             ....  154
 Basis Dimension        Dim             ....  804

ORBITAL ENERGIES
----------------

  NO   OCC          E(Eh)            E(eV)
   0   2.0000     -10.583652      -287.9958
   1   2.0000     -10.583631      -287.9952
   2   2.0000     -10.569967      -287.6234
   3   2.0000     -10.569369      -287.6071
   4   2.0000     -10.564192      -287.4663
   5   2.0000     -10.564177      -287.4659
   6   2.0000     -10.561467      -287.3921
   7   2.0000     -10.561098      -287.3821
   8   2.0000     -10.561078      -287.3815
   9   2.0000     -10.560889      -287.3764
  10   2.0000     -10.560086      -287.3545
  11   2.0000     -10.560016      -287.3527
  12   2.0000     -10.554479      -287.2020
  13   2.0000     -10.554457      -287.2014
  14   2.0000     -10.553359      -287.1715
  15   2.0000     -10.553340      -287.1710
  16   2.0000     -10.552151      -287.1386
  17   2.0000     -10.552053      -287.1360
  18   2.0000     -10.552043      -287.1357
  19   2.0000     -10.551200      -287.1128
  20   2.0000     -10.551024      -287.1080
  21   2.0000     -10.551020      -287.1079
  22   2.0000     -10.548856      -287.0490
  23   2.0000     -10.546392      -286.9819
  24   2.0000      -1.026500       -27.9325
  25   2.0000      -0.988590       -26.9009
  26   2.0000      -0.987189       -26.8628
  27   2.0000      -0.937382       -25.5075
  28   2.0000      -0.936331       -25.4789
  29   2.0000      -0.915551       -24.9134
  30   2.0000      -0.886219       -24.1153
  31   2.0000      -0.867050       -23.5936
  32   2.0000      -0.850724       -23.1494
  33   2.0000      -0.842502       -22.9256
  34   2.0000      -0.814614       -22.1668
  35   2.0000      -0.814363       -22.1600
  36   2.0000      -0.730580       -19.8801
  37   2.0000      -0.729807       -19.8591
  38   2.0000      -0.725445       -19.7404
  39   2.0000      -0.715418       -19.4675
  40   2.0000      -0.713729       -19.4216
  41   2.0000      -0.652094       -17.7444
  42   2.0000      -0.634175       -17.2568
  43   2.0000      -0.623682       -16.9713
  44   2.0000      -0.615905       -16.7596
  45   2.0000      -0.608164       -16.5490
  46   2.0000      -0.596288       -16.2258
  47   2.0000      -0.556768       -15.1504
  48   2.0000      -0.550481       -14.9793
  49   2.0000      -0.538107       -14.6426
  50   2.0000      -0.534042       -14.5320
  51   2.0000      -0.526016       -14.3136
  52   2.0000      -0.515752       -14.0343
  53   2.0000      -0.512622       -13.9492
  54   2.0000      -0.500257       -13.6127
  55   2.0000      -0.493828       -13.4377
  56   2.0000      -0.483069       -13.1450
  57   2.0000      -0.481380       -13.0990
  58   2.0000      -0.471136       -12.8203
  59   2.0000      -0.470822       -12.8117
  60   2.0000      -0.468309       -12.7433
  61   2.0000      -0.447211       -12.1692
  62   2.0000      -0.443240       -12.0612
  63   2.0000      -0.432750       -11.7757
  64   2.0000      -0.426560       -11.6073
  65   2.0000      -0.409708       -11.1487
  66   2.0000      -0.407365       -11.0850
  67   2.0000      -0.388383       -10.5684
  68   2.0000      -0.388016       -10.5584
  69   2.0000      -0.386108       -10.5065
  70   2.0000      -0.341255        -9.2860
  71   2.0000      -0.331225        -9.0131
  72   2.0000      -0.326663        -8.8889
  73   2.0000      -0.315265        -8.5788
  74   2.0000      -0.313172        -8.5218
  75   2.0000      -0.259326        -7.0566
  76   2.0000      -0.256924        -6.9912
  77   0.0000      -0.045022        -1.2251
  78   0.0000      -0.037565        -1.0222
  79   0.0000      -0.035966        -0.9787
  80   0.0000       0.000334         0.0091
  81   0.0000       0.006324         0.1721

MULLIKEN ATOMIC CHARGES
-----------------------
   0 C :   -0.182460
   1 C :   -0.183162
   2 C :    0.095089
   3 C :   -0.187236
   4 C :   -0.187077
   5 C :    0.090601
   6 C :   -0.153464
   7 C :   -0.237276
   8 C :    0.087227
   9 C :   -0.063971
  10 C :   -0.064294
  11 C :    0.089791
  12 C :   -0.238050
  13 C :   -0.153920
  14 C :    0.089225
  15 C :   -0.185044
  16 C :   -0.187832
  17 C :    0.091666
  18 C :    0.026769
  19 C :    0.058418
  20 C :   -0.029968
  21 C :   -0.027120
  22 C :    0.058393
  23 C :    0.023463
  24 H :    0.134555
  25 H :    0.134640
  26 H :    0.134461
  27 H :    0.134674
  28 H :    0.135861
  29 H :    0.145591
  30 H :    0.145354
  31 H :    0.135609
  32 H :    0.135080
  33 H :    0.134407
Sum of atomic charges:   -0.0000000

LOEWDIN ATOMIC CHARGES
----------------------
   0 C :   -0.098524
   1 C :   -0.098449
   2 C :   -0.092113
   3 C :   -0.099731
   4 C :   -0.099221
   5 C :   -0.092506
   6 C :   -0.094291
   7 C :   -0.099420
   8 C :   -0.094904
   9 C :    0.013224
  10 C :    0.013110
  11 C :   -0.094919
  12 C :   -0.099396
  13 C :   -0.094378
  14 C :   -0.092524
  15 C :   -0.099151
  16 C :   -0.099722
  17 C :   -0.092141
  18 C :   -0.005334
  19 C :   -0.004556
  20 C :    0.010741
  21 C :    0.010734
  22 C :   -0.004552
  23 C :   -0.005336
  24 H :    0.150523
  25 H :    0.150511
  26 H :    0.150518
  27 H :    0.150692
  28 H :    0.151508
  29 H :    0.153448
  30 H :    0.153444
  31 H :    0.151523
  32 H :    0.150680
  33 H :    0.150514

  Mayer bond orders larger than 0.100000
B(  0-C ,  1-C ) :   1.6300 B(  0-C , 17-C ) :   1.2469 B(  0-C , 24-H ) :   0.9336
B(  1-C ,  2-C ) :   1.2464 B(  1-C , 25-H ) :   0.9333 B(  2-C ,  3-C ) :   1.2310
B(  2-C , 23-C ) :   1.3083 B(  3-C ,  4-C ) :   1.6547 B(  3-C , 26-H ) :   0.9345
B(  4-C ,  5-C ) :   1.2267 B(  4-C , 27-H ) :   0.9328 B(  5-C ,  6-C ) :   1.2564
B(  5-C , 22-C ) :   1.2919 B(  6-C ,  7-C ) :   1.5790 B(  6-C , 28-H ) :   0.9395
B(  7-C ,  8-C ) :   1.2791 B(  7-C , 29-H ) :   0.9513 B(  8-C ,  9-C ) :   1.1541
B(  8-C , 21-C ) :   1.2965 B(  9-C , 10-C ) :   2.5402 B( 10-C , 11-C ) :   1.1544
B( 11-C , 12-C ) :   1.2774 B( 11-C , 20-C ) :   1.2947 B( 12-C , 13-C ) :   1.5784
B( 12-C , 30-H ) :   0.9526 B( 13-C , 14-C ) :   1.2551 B( 13-C , 31-H ) :   0.9410
B( 14-C , 15-C ) :   1.2289 B( 14-C , 19-C ) :   1.2911 B( 15-C , 16-C ) :   1.6547
B( 15-C , 32-H ) :   0.9310 B( 16-C , 17-C ) :   1.2311 B( 16-C , 33-H ) :   0.9349
B( 17-C , 18-C ) :   1.3093 B( 18-C , 19-C ) :   1.1609 B( 18-C , 23-C ) :   1.1728
B( 19-C , 20-C ) :   1.1540 B( 20-C , 21-C ) :   1.2346 B( 21-C , 22-C ) :   1.1524
B( 22-C , 23-C ) :   1.1616

FINAL SINGLE POINT ENERGY      -920.519429154664

DIPOLE MOMENT
-------------
                                X             Y             Z
Electronic contribution:     -3.83622       6.45472      -0.00036
Nuclear contribution   :      4.28231      -7.20649       0.00041
                        -----------------------------------------
Total Dipole Moment    :      0.44609      -0.75176       0.00004
                        -----------------------------------------
Magnitude (a.u.)       :      0.87415
Magnitude (Debye)      :      2.22192

VIBRATIONAL FREQUENCIES
-----------------------

Scaling factor for frequencies =  1.000000000  (already applied!)

   0:         0.00 cm**-1
   1:         0.00 cm**-1
   2:         0.00 cm**-1
   3:         0.00 cm**-1
   4:         0.00 cm**-1
   5:         0.00 cm**-1
   6:        90.22 cm**-1
   7:        90.70 cm**-1
   8:       132.09 cm**-1
   9:       171.11 cm**-1
  10:       229.26 cm**-1
  11:       301.84 cm**-1
  12:       304.42 cm**-1
  13:       310.12 cm**-1
  14:       329.97 cm**-1
  15:       360.91 cm**-1
  16:       368.15 cm**-1
  17:       390.14 cm**-1
  18:       395.12 cm**-1
  19:       449.68 cm**-1
  20:       456.83 cm**-1
  21:       463.39 cm**-1
  22:       477.78 cm**-1
  23:       496.16 cm**-1
  24:       502.03 cm**-1
  25:       510.52 cm**-1
  26:       512.81 cm**-1
  27:       552.84 cm**-1
  28:       565.80 cm**-1
  29:       583.81 cm**-1
  30:       589.89 cm**-1
  31:       647.03 cm**-1
  32:       656.20 cm**-1
  33:       685.68 cm**-1
  34:       685.91 cm**-1
  35:       689.25 cm**-1
  36:       699.95 cm**-1
  37:       748.76 cm**-1
  38:       778.22 cm**-1
  39:       797.53 cm**-1
  40:       802.51 cm**-1
  41:       838.29 cm**-1
  42:       838.35 cm**-1
  43:       838.83 cm**-1
  44:       846.35 cm**-1
  45:       868.31 cm**-1
  46:       878.18 cm**-1
  47:       891.23 cm**-1
  48:       917.31 cm**-1
  49:       955.33 cm**-1
  50:       984.46 cm**-1
  51:       990.29 cm**-1
  52:       995.53 cm**-1
  53:      1000.87 cm**-1
  54:      1004.04 cm**-1
  55:      1005.34 cm**-1
  56:      1019.23 cm**-1
  57:      1052.43 cm**-1
  58:      1145.47 cm**-1
  59:      1146.60 cm**-1
  60:      1169.57 cm**-1
  61:      1177.17 cm**-1
  62:      1183.60 cm**-1
  63:      1214.21 cm**-1
  64:      1228.81 cm**-1
  65:      1247.34 cm**-1
  66:      1251.85 cm**-1
  67:      1254.11 cm**-1
  68:      1259.12 cm**-1
  69:      1300.42 cm**-1
  70:      1316.57 cm**-1
  71:      1357.34 cm**-1
  72:      1372.32 cm**-1
  73:      1393.02 cm**-1
  74:      1405.67 cm**-1
  75:      1429.71 cm**-1
  76:      1441.30 cm**-1
  77:      1451.30 cm**-1
  78:      1470.44 cm**-1
  79:      1475.41 cm**-1
  80:      1478.60 cm**-1
  81:      1515.15 cm**-1
  82:      1554.13 cm**-1
  83:      1555.33 cm**-1
  84:      1585.60 cm**-1
  85:      1595.25 cm**-1
  86:      1610.47 cm**-1
  87:      1674.67 cm**-1
  88:      1679.51 cm**-1
  89:      1690.47 cm**-1
  90:      1693.61 cm**-1
  91:      2129.49 cm**-1
  92:      3200.91 cm**-1
  93:      3201.97 cm**-1
  94:      3202.48 cm**-1
  95:      3209.15 cm**-1
  96:      3209.50 cm**-1
  97:      3217.43 cm**-1
  98:      3218.62 cm**-1
  99:      3219.28 cm**-1
 100:      3235.39 cm**-1
 101:      3236.54 cm**-1

IR SPECTRUM
-----------

 Mode   freq       eps      Int      T**2         TX        TY        TZ
       cm**-1   L/(mol*cm) km/mol    a.u.
----------------------------------------------------------------------------
  6:     90.22   0.000066    0.33  0.000229  (-0.000002  0.000011 -0.015138)
  7:     90.70   0.000029    0.14  0.000098  (-0.000002  0.000009 -0.009921)
  8:    132.09   0.000916    4.63  0.002164  ( 0.000002 -0.000006  0.046518)
  9:    171.11   0.000007    0.03  0.000012  ( 0.000005  0.000011  0.003528)
 10:    229.26   0.000000    0.00  0.000000  ( 0.000015  0.000002  0.000056)
 11:    301.84   0.000001    0.01  0.000001  ( 0.000012  0.000021 -0.001020)
 12:    304.42   0.000000    0.00  0.000000  ( 0.000016  0.000011  0.000067)
 13:    310.12   0.000000    0.00  0.000000  ( 0.000026  0.000002  0.000081)
 14:    329.97   0.000310    1.57  0.000293  (-0.000011  0.000004  0.017129)
 15:    360.91   0.001728    8.73  0.001494  ( 0.033248  0.019718  0.000001)
 16:    368.15   0.000002    0.01  0.000002  ( 0.000762 -0.001202 -0.000000)
 17:    390.14   0.001158    5.85  0.000926  ( 0.015545 -0.026166  0.000001)
 18:    395.12   0.000057    0.29  0.000045  (-0.005867 -0.003241  0.000000)
 19:    449.68   0.012803   64.70  0.008885  ( 0.081007  0.048195  0.000002)
 20:    456.83   0.000000    0.00  0.000000  (-0.000007 -0.000015 -0.000103)
 21:    463.39   0.000075    0.38  0.000050  (-0.000001  0.000000  0.007083)
 22:    477.78   0.000066    0.33  0.000043  ( 0.003306 -0.005660  0.000000)
 23:    496.16   0.000061    0.31  0.000038  (-0.003088  0.005365 -0.000000)
 24:    502.03   0.000045    0.23  0.000028  (-0.002612  0.004613 -0.000000)
 25:    510.52   0.000000    0.00  0.000000  ( 0.000003 -0.000001  0.000093)
 26:    512.81   0.000381    1.93  0.000232  ( 0.013126  0.007719  0.000000)
 27:    552.84   0.000000    0.00  0.000000  (-0.000006 -0.000005  0.000087)
 28:    565.80   0.001945    9.83  0.001073  (-0.000010  0.000006  0.032750)
 29:    583.81   0.001534    7.75  0.000820  (-0.024592 -0.014676 -0.000001)
 30:    589.89   0.004824   24.38  0.002552  ( 0.000003 -0.000004  0.050515)
 31:    647.03   0.000000    0.00  0.000000  (-0.000017 -0.000016 -0.000072)
 32:    656.20   0.000363    1.84  0.000173  ( 0.011322  0.006672 -0.000000)
 33:    685.68   0.000000    0.00  0.000000  ( 0.000005  0.000012 -0.000015)
 34:    685.91   0.000201    1.02  0.000092  ( 0.004836 -0.008263  0.000000)
 35:    689.25   0.000010    0.05  0.000005  ( 0.001971  0.000856  0.000000)
 36:    699.95   0.000103    0.52  0.000046  ( 0.000019 -0.000001  0.006782)
 37:    748.76   0.001867    9.43  0.000778  (-0.023976 -0.014252 -0.000002)
 38:    778.22   0.000879    4.44  0.000352  (-0.009642  0.016104 -0.000001)
 39:    797.53   0.000003    0.02  0.000001  ( 0.000012 -0.000000 -0.001084)
 40:    802.51   0.000001    0.00  0.000000  ( 0.000000  0.000002  0.000458)
 41:    838.29   0.000221    1.12  0.000082  ( 0.004657 -0.007771 -0.000246)
 42:    838.35   0.002062   10.42  0.000768  (-0.000051  0.000065 -0.027707)
 43:    838.83   0.000003    0.02  0.000001  (-0.001111  0.000116 -0.000107)
 44:    846.35   0.000001    0.00  0.000000  (-0.000004 -0.000003  0.000530)
 45:    868.31   0.000442    2.23  0.000159  ( 0.000001  0.000008  0.012600)
 46:    878.18   0.000003    0.01  0.000001  ( 0.000010  0.000009 -0.001013)
 47:    891.23   0.024066  121.62  0.008427  ( 0.000021  0.000008 -0.091797)
 48:    917.31   0.000093    0.47  0.000032  ( 0.004821  0.002919 -0.000004)
 49:    955.33   0.000000    0.00  0.000000  ( 0.000000  0.000013  0.000087)
 50:    984.46   0.000000    0.00  0.000000  (-0.000007 -0.000004  0.000019)
 51:    990.29   0.000032    0.16  0.000010  ( 0.000005  0.000004 -0.003182)
 52:    995.53   0.000000    0.00  0.000000  ( 0.000001  0.000001 -0.000276)
 53:   1000.87   0.000028    0.14  0.000009  ( 0.000004  0.000005  0.002976)
 54:   1004.04   0.000000    0.00  0.000000  ( 0.000005 -0.000002  0.000379)
 55:   1005.34   0.000174    0.88  0.000054  ( 0.006294  0.003797 -0.000002)
 56:   1019.23   0.000010    0.05  0.000003  (-0.000883  0.001500  0.000000)
 57:   1052.43   0.000254    1.28  0.000075  (-0.004465  0.007444  0.000000)
 58:   1145.47   0.001587    8.02  0.000432  ( 0.007769 -0.019288  0.000001)
 59:   1146.60   0.002087   10.55  0.000568  ( 0.021946  0.009294  0.000000)
 60:   1169.57   0.000859    4.34  0.000229  ( 0.007926 -0.012896  0.000001)
 61:   1177.17   0.000045    0.23  0.000012  ( 0.002902  0.001854  0.000000)
 62:   1183.60   0.000204    1.03  0.000054  (-0.006255 -0.003827 -0.000000)
 63:   1214.21   0.000197    1.00  0.000051  (-0.003519  0.006194 -0.000000)
 64:   1228.81   0.000188    0.95  0.000048  ( 0.003548 -0.005927  0.000000)
 65:   1247.34   0.000582    2.94  0.000146  ( 0.006185 -0.010361  0.000000)
 66:   1251.85   0.000168    0.85  0.000042  (-0.005243 -0.003797 -0.000000)
 67:   1254.11   0.000133    0.67  0.000033  (-0.003171  0.004803 -0.000000)
 68:   1259.12   0.000017    0.09  0.000004  (-0.001688 -0.001178  0.000000)
 69:   1300.42   0.001138    5.75  0.000273  ( 0.008416 -0.014223  0.000001)
 70:   1316.57   0.001556    7.87  0.000369  (-0.016476 -0.009873 -0.000001)
 71:   1357.34   0.000926    4.68  0.000213  ( 0.007563 -0.012475  0.000001)
 72:   1372.32   0.001178    5.96  0.000268  ( 0.014022  0.008448  0.000001)
 73:   1393.02   0.000008    0.04  0.000002  (-0.001122 -0.000689  0.000000)
 74:   1405.67   0.000319    1.61  0.000071  (-0.004470  0.007136 -0.000000)
 75:   1429.71   0.000455    2.30  0.000099  (-0.005115  0.008550 -0.000000)
 76:   1441.30   0.000436    2.20  0.000094  (-0.004953  0.008354 -0.000001)
 77:   1451.30   0.000048    0.24  0.000010  (-0.002754 -0.001662 -0.000000)
 78:   1470.44   0.000037    0.18  0.000008  (-0.002420 -0.001378 -0.000000)
 79:   1475.41   0.000084    0.43  0.000018  (-0.003819 -0.001794 -0.000000)
 80:   1478.60   0.000732    3.70  0.000154  (-0.006181  0.010780 -0.000001)
 81:   1515.15   0.000002    0.01  0.000000  ( 0.000345 -0.000445  0.000000)
 82:   1554.13   0.002121   10.72  0.000426  (-0.019182 -0.007611 -0.000001)
 83:   1555.33   0.002106   10.65  0.000423  (-0.007594  0.019104 -0.000001)
 84:   1585.60   0.000008    0.04  0.000002  (-0.001074 -0.000589  0.000000)
 85:   1595.25   0.001630    8.24  0.000319  ( 0.009068 -0.015381  0.000001)
 86:   1610.47   0.000819    4.14  0.000159  ( 0.010830  0.006428  0.000000)
 87:   1674.67   0.002753   13.91  0.000513  (-0.019665 -0.011240 -0.000001)
 88:   1679.51   0.001035    5.23  0.000192  ( 0.006507 -0.012249  0.000001)
 89:   1690.47   0.000162    0.82  0.000030  (-0.003480  0.004215 -0.000000)
 90:   1693.61   0.001562    7.90  0.000288  (-0.014352 -0.009051 -0.000000)
 91:   2129.49   0.000482    2.43  0.000071  (-0.004270  0.007237 -0.000000)
 92:   3200.91   0.000102    0.51  0.000010  ( 0.002865  0.001311  0.000000)
 93:   3201.97   0.000124    0.63  0.000012  ( 0.000620 -0.003418  0.000000)
 94:   3202.48   0.000026    0.13  0.000003  ( 0.001497 -0.000555  0.000000)
 95:   3209.15   0.000676    3.42  0.000066  ( 0.006090  0.005352  0.000000)
 96:   3209.50   0.000336    1.70  0.000033  (-0.005707 -0.000344 -0.000000)
 97:   3217.43   0.000670    3.39  0.000065  (-0.005263  0.006109 -0.000000)
 98:   3218.62   0.003727   18.84  0.000361  (-0.011774 -0.014926 -0.000000)
 99:   3219.28   0.002917   14.74  0.000283  (-0.014223  0.008972 -0.000001)
100:   3235.39   0.000761    3.85  0.000073  (-0.004942 -0.007000  0.000000)
101:   3236.54   0.000705    3.57  0.000068  (-0.008221 -0.000665 -0.000000)

--------------------------
THERMOCHEMISTRY AT 10000.00K
--------------------------

Temperature         ... 10000.00 K
Pressure            ... 1.00 atm
Total Mass          ... 298.34 AMU

Throughout the following assumptions are being made:
  (1) The electronic state is orbitally nondegenerate
  (2) There are no thermally accessible electronically excited states
  (3) Hindered rotations indicated by low frequency modes are not
      treated as such but are treated as vibrations and this may
      cause some error
  (4) All equations used are the standard statistical mechanics
      equations for an ideal gas
  (5) All vibrations are strictly harmonic

freq.      90.22  E(vib)   ...      19.74
freq.      90.70  E(vib)   ...      19.74
freq.     132.09  E(vib)   ...      19.68
freq.     171.11  E(vib)   ...      19.63
freq.     229.26  E(vib)   ...      19.55
freq.     301.84  E(vib)   ...      19.44
freq.     304.42  E(vib)   ...      19.44
freq.     310.12  E(vib)   ...      19.43
freq.     329.97  E(vib)   ...      19.40
freq.     360.91  E(vib)   ...      19.36
freq.     368.15  E(vib)   ...      19.35
freq.     390.14  E(vib)   ...      19.32
freq.     395.12  E(vib)   ...      19.31
freq.     449.68  E(vib)   ...      19.24
freq.     456.83  E(vib)   ...      19.23
freq.     463.39  E(vib)   ...      19.22
freq.     477.78  E(vib)   ...      19.20
freq.     496.16  E(vib)   ...      19.17
freq.     502.03  E(vib)   ...      19.16
freq.     510.52  E(vib)   ...      19.15
freq.     512.81  E(vib)   ...      19.15
freq.     552.84  E(vib)   ...      19.09
freq.     565.80  E(vib)   ...      19.07
freq.     583.81  E(vib)   ...      19.05
freq.     589.89  E(vib)   ...      19.04
freq.     647.03  E(vib)   ...      18.96
freq.     656.20  E(vib)   ...      18.95
freq.     685.68  E(vib)   ...      18.91
freq.     685.91  E(vib)   ...      18.91
freq.     689.25  E(vib)   ...      18.90
freq.     699.95  E(vib)   ...      18.89
freq.     748.76  E(vib)   ...      18.82
freq.     778.22  E(vib)   ...      18.78
freq.     797.53  E(vib)   ...      18.75
freq.     802.51  E(vib)   ...      18.75
freq.     838.29  E(vib)   ...      18.70
freq.     838.35  E(vib)   ...      18.70
freq.     838.83  E(vib)   ...      18.70
freq.     846.35  E(vib)   ...      18.69
freq.     868.31  E(vib)   ...      18.66
freq.     878.18  E(vib)   ...      18.64
freq.     891.23  E(vib)   ...      18.63
freq.     917.31  E(vib)   ...      18.59
freq.     955.33  E(vib)   ...      18.54
freq.     984.46  E(vib)   ...      18.50
freq.     990.29  E(vib)   ...      18.49
freq.     995.53  E(vib)   ...      18.48
freq.    1000.87  E(vib)   ...      18.48
freq.    1004.04  E(vib)   ...      18.47
freq.    1005.34  E(vib)   ...      18.47
freq.    1019.23  E(vib)   ...      18.45
freq.    1052.43  E(vib)   ...      18.41
freq.    1145.47  E(vib)   ...      18.28
freq.    1146.60  E(vib)   ...      18.28
freq.    1169.57  E(vib)   ...      18.25
freq.    1177.17  E(vib)   ...      18.24
freq.    1183.60  E(vib)   ...      18.23
freq.    1214.21  E(vib)   ...      18.19
freq.    1228.81  E(vib)   ...      18.17
freq.    1247.34  E(vib)   ...      18.14
freq.    1251.85  E(vib)   ...      18.14
freq.    1254.11  E(vib)   ...      18.13
freq.    1259.12  E(vib)   ...      18.13
freq.    1300.42  E(vib)   ...      18.07
freq.    1316.57  E(vib)   ...      18.05
freq.    1357.34  E(vib)   ...      18.00
freq.    1372.32  E(vib)   ...      17.98
freq.    1393.02  E(vib)   ...      17.95
freq.    1405.67  E(vib)   ...      17.93
freq.    1429.71  E(vib)   ...      17.90
freq.    1441.30  E(vib)   ...      17.88
freq.    1451.30  E(vib)   ...      17.87
freq.    1470.44  E(vib)   ...      17.84
freq.    1475.41  E(vib)   ...      17.84
freq.    1478.60  E(vib)   ...      17.83
freq.    1515.15  E(vib)   ...      17.79
freq.    1554.13  E(vib)   ...      17.73
freq.    1555.33  E(vib)   ...      17.73
freq.    1585.60  E(vib)   ...      17.69
freq.    1595.25  E(vib)   ...      17.68
freq.    1610.47  E(vib)   ...      17.66
freq.    1674.67  E(vib)   ...      17.57
freq.    1679.51  E(vib)   ...      17.57
freq.    1690.47  E(vib)   ...      17.55
freq.    1693.61  E(vib)   ...      17.55
freq.    2129.49  E(vib)   ...      16.98
freq.    3200.91  E(vib)   ...      15.65
freq.    3201.97  E(vib)   ...      15.65
freq.    3202.48  E(vib)   ...      15.64
freq.    3209.15  E(vib)   ...      15.64
freq.    3209.50  E(vib)   ...      15.64
freq.    3217.43  E(vib)   ...      15.63
freq.    3218.62  E(vib)   ...      15.63
freq.    3219.28  E(vib)   ...      15.62
freq.    3235.39  E(vib)   ...      15.60
freq.    3236.54  E(vib)   ...      15.60

------------
INNER ENERGY
------------

The inner energy is: U= E(el) + E(ZPE) + E(vib) + E(rot) + E(trans)
    E(el)   - is the total energy from the electronic structure calculation
              = E(kin-el) + E(nuc-el) + E(el-el) + E(nuc-nuc)
    E(ZPE)  - the the zero temperature vibrational energy from the frequency calculation
    E(vib)  - the the finite temperature correction to E(ZPE) due to population
              of excited vibrational states
    E(rot)  - is the rotational thermal energy
    E(trans)- is the translational thermal energy

Summary of contributions to the inner energy U:
Electronic energy                ...   -920.51942915 Eh
Zero point energy                ...      0.25824380 Eh     162.05 kcal/mol
Thermal vibrational correction   ...      2.79278711 Eh    1752.50 kcal/mol
Thermal rotational correction    ...      0.04750198 Eh      29.81 kcal/mol
Thermal translational correction ...      0.04750198 Eh      29.81 kcal/mol
-----------------------------------------------------------------------
Total thermal energy                   -917.37339429 Eh

Summary of corrections to the electronic energy:
(perhaps to be used in another calculation)
Total thermal correction                  2.88779106 Eh    1812.11 kcal/mol
Non-thermal (ZPE) correction              0.25824380 Eh     162.05 kcal/mol
-----------------------------------------------------------------------
Total correction                          3.14603486 Eh    1974.16 kcal/mol

--------
ENTHALPY
--------

The enthalpy is H = U + kB*T
                kB is Boltzmann's constant
Total free energy                 ...   -917.37339429 Eh
Thermal Enthalpy correction       ...      0.03166893 Eh      19.87 kcal/mol
-----------------------------------------------------------------------
Total Enthalpy                    ...   -917.34172537 Eh

Note: Rotational entropy computed according to Herzberg
Infrared and Raman Spectra, Chapter V,1, Van Nostrand Reinhold, 1945
Point Group:  Cs, Symmetry Number:   1
Rotational constants in cm-1:     0.011736     0.011122     0.005711

                             ****ORCA TERMINATED NORMALLY****
TOTAL RUN TIME: 0 days 12 hours 8 minutes 10 seconds 552 msec
