                         Program Version 5.0.4 -  RELEASE  -
|  1> !b3lyp 6-311+g** d4 moread UKS
|  2>
|  3> %moinp "Stone-Wales_defect_loss_ten_6.0.gbw"
|  4>
|  5> %scf
|  6>   stabperform true
|  7>   stabdtol 0.00001
|  8>   stabrtol 0.00001
|  9>   end
| 10>
| 11> %maxcore 5000
| 12> %pal
| 13> nprocs 8
| 14> end
| 15>
| 16> %tddft
| 17>   nroots 1000
| 18>   end
| 19>
| 20> * xyz 0 1
| 21>   C   2.68566939094817     -3.24419531979271      0.00419000251069
| 22>   C   1.64151304950243     -3.93921929497949      0.00346674379640
| 23>   C   0.48891192454862     -3.14878212682349      0.00426335474914
| 24>   C   -0.87959778671734     -3.26485604440161      0.00413200299237
| 25>   C   -1.92677224219034     -2.62356986876759      0.00478733065758
| 26>   C   -2.31244064055646     -1.29126614310345      0.00615293283795
| 27>   C   -3.51945602634113     -0.56279779955904      0.00688720048400
| 28>   C   -3.71005690226996      0.65901695885447      0.00812714049746
| 29>   C   -2.73083056642153      1.67084536275177      0.00915172816293
| 30>   C   -2.52053346599054      3.05334738678102      0.01053830959636
| 31>   C   -1.43920903015017      3.66748714446935      0.01114822984055
| 32>   C   -0.13860687552682      3.15362364543364      0.01062903155154
| 33>   C   1.22887595625879      3.50025214145098      0.01097462320437
| 34>   C   2.15521262010293      2.68538912366175      0.01016293589238
| 35>   C   2.21494515479346      1.26804528302998      0.00874538737329
| 36>   C   3.40338374998569      0.50683044906403      0.00800635369006
| 37>   C   3.51322208096139     -0.86343440531594      0.00663207622935
| 38>   C   2.51703590367707     -1.85026751602127      0.00561244925883
| 39>   C   0.27575251676663     -0.56037594900003      0.00688857474980
| 40>   C   -1.44613721702936      1.01554581742528      0.00848919233760
| 41>   C   -1.20581905157087     -0.37030790205319      0.00708750911907
| 42>   C   1.01077204478199     -1.72941150786574      0.00571403008810
| 43>   H   4.32468305369909      1.07602879006055      0.00859026076588
| 44>   H   4.52328382936289     -1.26007436523378      0.00624908514447
| 45>   C   0.86278278107715      0.79662632933767      0.00826009236128
| 46>   C   -0.21523425170174      1.71497981059684      0.00918342210856
| 47> **                         ****END OF INPUT****

CARTESIAN COORDINATES (ANGSTROEM)
---------------------------------
  C      2.685669   -3.244195    0.004190
  C      1.641513   -3.939219    0.003467
  C      0.488912   -3.148782    0.004263
  C     -0.879598   -3.264856    0.004132
  C     -1.926772   -2.623570    0.004787
  C     -2.312441   -1.291266    0.006153
  C     -3.519456   -0.562798    0.006887
  C     -3.710057    0.659017    0.008127
  C     -2.730831    1.670845    0.009152
  C     -2.520533    3.053347    0.010538
  C     -1.439209    3.667487    0.011148
  C     -0.138607    3.153624    0.010629
  C      1.228876    3.500252    0.010975
  C      2.155213    2.685389    0.010163
  C      2.214945    1.268045    0.008745
  C      3.403384    0.506830    0.008006
  C      3.513222   -0.863434    0.006632
  C      2.517036   -1.850268    0.005612
  C      0.275753   -0.560376    0.006889
  C     -1.446137    1.015546    0.008489
  C     -1.205819   -0.370308    0.007088
  C      1.010772   -1.729412    0.005714
  H      4.324683    1.076029    0.008590
  H      4.523284   -1.260074    0.006249
  C      0.862783    0.796626    0.008260
  C     -0.215234    1.714980    0.009183

 Total Charge           Charge          ....    0
 Multiplicity           Mult            ....    1
 Number of Electrons    NEL             ....  146
 Basis Dimension        Dim             ....  540

ORBITAL ENERGIES
----------------
                 SPIN UP ORBITALS
  NO   OCC          E(Eh)            E(eV)
   0   1.0000     -10.269243      -279.4403
   1   1.0000     -10.264017      -279.2981
   2   1.0000     -10.263240      -279.2770
   3   1.0000     -10.254488      -279.0388
   4   1.0000     -10.252452      -278.9834
   5   1.0000     -10.252247      -278.9778
   6   1.0000     -10.248561      -278.8775
   7   1.0000     -10.235664      -278.5266
   8   1.0000     -10.231771      -278.4206
   9   1.0000     -10.227047      -278.2921
  10   1.0000     -10.219803      -278.0950
  11   1.0000     -10.219407      -278.0842
  12   1.0000     -10.219272      -278.0805
  13   1.0000     -10.219260      -278.0802
  14   1.0000     -10.218022      -278.0465
  15   1.0000     -10.216992      -278.0185
  16   1.0000     -10.216238      -277.9980
  17   1.0000     -10.215232      -277.9706
  18   1.0000     -10.214573      -277.9527
  19   1.0000     -10.214062      -277.9388
  20   1.0000     -10.212157      -277.8869
  21   1.0000     -10.208492      -277.7872
  22   1.0000     -10.207287      -277.7544
  23   1.0000     -10.205056      -277.6937
  24   1.0000      -0.955611       -26.0035
  25   1.0000      -0.926019       -25.1983
  26   1.0000      -0.907228       -24.6869
  27   1.0000      -0.881770       -23.9942
  28   1.0000      -0.855649       -23.2834
  29   1.0000      -0.852349       -23.1936
  30   1.0000      -0.824194       -22.4274
  31   1.0000      -0.802058       -21.8251
  32   1.0000      -0.782262       -21.2864
  33   1.0000      -0.763662       -20.7803
  34   1.0000      -0.751675       -20.4541
  35   1.0000      -0.735475       -20.0133
  36   1.0000      -0.686179       -18.6719
  37   1.0000      -0.683093       -18.5879
  38   1.0000      -0.666377       -18.1330
  39   1.0000      -0.641700       -17.4615
  40   1.0000      -0.596070       -16.2199
  41   1.0000      -0.591698       -16.1009
  42   1.0000      -0.584176       -15.8962
  43   1.0000      -0.573398       -15.6030
  44   1.0000      -0.551079       -14.9956
  45   1.0000      -0.538743       -14.6600
  46   1.0000      -0.527645       -14.3580
  47   1.0000      -0.522680       -14.2228
  48   1.0000      -0.503975       -13.7139
  49   1.0000      -0.485380       -13.2079
  50   1.0000      -0.469828       -12.7847
  51   1.0000      -0.469721       -12.7818
  52   1.0000      -0.455908       -12.4059
  53   1.0000      -0.437004       -11.8915
  54   1.0000      -0.434694       -11.8286
  55   1.0000      -0.431577       -11.7438
  56   1.0000      -0.422811       -11.5053
  57   1.0000      -0.408358       -11.1120
  58   1.0000      -0.390214       -10.6183
  59   1.0000      -0.387963       -10.5570
  60   1.0000      -0.370420       -10.0796
  61   1.0000      -0.364542        -9.9197
  62   1.0000      -0.320605        -8.7241
  63   1.0000      -0.311493        -8.4761
  64   1.0000      -0.310401        -8.4464
  65   1.0000      -0.307512        -8.3678
  66   1.0000      -0.302093        -8.2204
  67   1.0000      -0.298006        -8.1092
  68   1.0000      -0.295939        -8.0529
  69   1.0000      -0.295191        -8.0326
  70   1.0000      -0.266274        -7.2457
  71   1.0000      -0.257176        -6.9981
  72   1.0000      -0.219369        -5.9693
  73   0.0000      -0.132973        -3.6184
  74   0.0000      -0.124623        -3.3912
  75   0.0000      -0.117295        -3.1918
  76   0.0000      -0.107456        -2.9240
  77   0.0000      -0.097729        -2.6593

                 SPIN DOWN ORBITALS
  NO   OCC          E(Eh)            E(eV)
   0   1.0000     -10.269429      -279.4454
   1   1.0000     -10.263857      -279.2938
   2   1.0000     -10.263414      -279.2817
   3   1.0000     -10.254442      -279.0376
   4   1.0000     -10.252305      -278.9794
   5   1.0000     -10.252255      -278.9781
   6   1.0000     -10.247815      -278.8572
   7   1.0000     -10.236404      -278.5467
   8   1.0000     -10.231614      -278.4164
   9   1.0000     -10.227253      -278.2977
  10   1.0000     -10.219779      -278.0943
  11   1.0000     -10.219407      -278.0842
  12   1.0000     -10.219281      -278.0808
  13   1.0000     -10.219064      -278.0749
  14   1.0000     -10.218012      -278.0463
  15   1.0000     -10.217123      -278.0221
  16   1.0000     -10.216256      -277.9985
  17   1.0000     -10.215090      -277.9667
  18   1.0000     -10.214083      -277.9393
  19   1.0000     -10.214022      -277.9377
  20   1.0000     -10.212140      -277.8865
  21   1.0000     -10.208199      -277.7792
  22   1.0000     -10.207738      -277.7667
  23   1.0000     -10.205713      -277.7116
  24   1.0000      -0.955608       -26.0034
  25   1.0000      -0.925692       -25.1894
  26   1.0000      -0.907238       -24.6872
  27   1.0000      -0.881691       -23.9920
  28   1.0000      -0.855676       -23.2841
  29   1.0000      -0.852208       -23.1898
  30   1.0000      -0.824361       -22.4320
  31   1.0000      -0.801545       -21.8112
  32   1.0000      -0.782691       -21.2981
  33   1.0000      -0.763711       -20.7816
  34   1.0000      -0.751657       -20.4536
  35   1.0000      -0.735197       -20.0057
  36   1.0000      -0.686474       -18.6799
  37   1.0000      -0.682906       -18.5828
  38   1.0000      -0.666547       -18.1377
  39   1.0000      -0.641641       -17.4599
  40   1.0000      -0.596153       -16.2221
  41   1.0000      -0.593133       -16.1400
  42   1.0000      -0.581219       -15.8158
  43   1.0000      -0.573437       -15.6040
  44   1.0000      -0.550714       -14.9857
  45   1.0000      -0.537869       -14.6362
  46   1.0000      -0.528146       -14.3716
  47   1.0000      -0.523538       -14.2462
  48   1.0000      -0.504196       -13.7199
  49   1.0000      -0.486193       -13.2300
  50   1.0000      -0.469815       -12.7843
  51   1.0000      -0.469623       -12.7791
  52   1.0000      -0.456028       -12.4092
  53   1.0000      -0.437206       -11.8970
  54   1.0000      -0.434518       -11.8238
  55   1.0000      -0.431759       -11.7487
  56   1.0000      -0.422840       -11.5061
  57   1.0000      -0.407659       -11.0930
  58   1.0000      -0.389764       -10.6060
  59   1.0000      -0.387898       -10.5552
  60   1.0000      -0.370162       -10.0726
  61   1.0000      -0.364650        -9.9226
  62   1.0000      -0.320786        -8.7290
  63   1.0000      -0.311860        -8.4861
  64   1.0000      -0.310142        -8.4394
  65   1.0000      -0.308717        -8.4006
  66   1.0000      -0.305945        -8.3252
  67   1.0000      -0.298539        -8.1236
  68   1.0000      -0.295395        -8.0381
  69   1.0000      -0.293319        -7.9816
  70   1.0000      -0.266350        -7.2478
  71   1.0000      -0.257537        -7.0079
  72   1.0000      -0.219001        -5.9593
  73   0.0000      -0.130393        -3.5482
  74   0.0000      -0.124704        -3.3934
  75   0.0000      -0.117286        -3.1915
  76   0.0000      -0.107435        -2.9234
  77   0.0000      -0.096764        -2.6331

MULLIKEN ATOMIC CHARGES AND SPIN POPULATIONS
--------------------------------------------
   0 C :   -0.098080    0.340698
   1 C :   -0.565897   -0.358956
   2 C :    0.693535   -0.044305
   3 C :    0.375105    0.122257
   4 C :   -0.028854    0.003139
   5 C :   -0.240369   -0.020162
   6 C :   -0.248048    0.012818
   7 C :   -0.258523   -0.005190
   8 C :    0.297595    0.007654
   9 C :   -0.318130   -0.010211
  10 C :   -0.215612    0.010491
  11 C :    0.328737   -0.010662
  12 C :   -0.018951    0.009354
  13 C :   -0.091616   -0.016052
  14 C :    0.698212    0.018698
  15 C :   -0.760161   -0.015492
  16 C :   -0.510258   -0.007987
  17 C :    1.084735   -0.098460
  18 C :    0.169500    0.015101
  19 C :    0.148619   -0.005043
  20 C :    0.475447    0.006586
  21 C :   -1.583369    0.031451
  22 H :    0.147571    0.001526
  23 H :    0.155105   -0.000775
  24 C :    0.219360    0.006685
  25 C :    0.144347    0.006839
Sum of atomic charges         :   -0.0000000

LOEWDIN ATOMIC CHARGES AND SPIN POPULATIONS
-------------------------------------------
   0 C :    0.032620    0.434054
   1 C :    0.020025   -0.432225
   2 C :   -0.091727    0.018622
   3 C :    0.044157   -0.007342
   4 C :   -0.003768    0.014037
   5 C :   -0.032379   -0.007738
   6 C :    0.028201    0.007620
   7 C :    0.036565   -0.007192
   8 C :   -0.049365    0.007123
   9 C :    0.025766   -0.008158
  10 C :    0.028430    0.007605
  11 C :   -0.045688   -0.007919
  12 C :    0.018896    0.007421
  13 C :    0.038426   -0.007691
  14 C :   -0.034504    0.008186
  15 C :   -0.062335   -0.023360
  16 C :   -0.007839    0.018517
  17 C :   -0.088661   -0.018077
  18 C :    0.040575    0.001224
  19 C :   -0.025854   -0.001637
  20 C :   -0.025279    0.006833
  21 C :    0.031368   -0.002304
  22 H :    0.088940   -0.000229
  23 H :    0.093943   -0.000033
  24 C :   -0.036890   -0.009252
  25 C :   -0.023623    0.001917

  Mayer bond orders larger than 0.100000
B(  0-C ,  1-C ) :   1.9004 B(  0-C ,  2-C ) :  -0.6600 B(  0-C ,  3-C ) :  -0.1872
B(  0-C ,  8-C ) :  -0.1403 B(  0-C , 14-C ) :  -0.1101 B(  0-C , 15-C ) :   0.1865
B(  0-C , 16-C ) :  -0.4439 B(  0-C , 17-C ) :  -0.2263 B(  0-C , 21-C ) :   1.8627
B(  1-C ,  2-C ) :  -0.8991 B(  1-C ,  3-C ) :  -1.1582 B(  1-C , 10-C ) :   0.1501
B(  1-C , 11-C ) :  -0.1685 B(  1-C , 12-C ) :  -0.1179 B(  1-C , 17-C ) :  -1.0241
B(  1-C , 18-C ) :   0.1740 B(  1-C , 20-C ) :   0.1144 B(  1-C , 21-C ) :   2.3704
B(  2-C ,  3-C ) :   1.9974 B(  2-C ,  4-C ) :   0.3740 B(  2-C ,  5-C ) :   0.3598
B(  2-C ,  6-C ) :   0.2790 B(  2-C ,  7-C ) :  -0.1475 B(  2-C ,  8-C ) :   0.1615
B(  2-C , 11-C ) :   0.2589 B(  2-C , 14-C ) :  -0.1313 B(  2-C , 15-C ) :   0.1393
B(  2-C , 17-C ) :   0.9422 B(  2-C , 18-C ) :  -0.3039 B(  2-C , 20-C ) :  -0.3410
B(  2-C , 21-C ) :  -0.5169 B(  3-C ,  4-C ) :   1.7178 B(  3-C ,  6-C ) :  -0.1077
B(  3-C ,  7-C ) :   0.2586 B(  3-C ,  8-C ) :   0.1948 B(  3-C , 10-C ) :  -0.1058
B(  3-C , 15-C ) :   0.1407 B(  3-C , 21-C ) :  -0.1242 B(  4-C ,  5-C ) :   1.0420
B(  4-C ,  6-C ) :  -0.4244 B(  4-C ,  7-C ) :  -0.1330 B(  4-C , 20-C ) :   0.1038
B(  5-C ,  6-C ) :   1.2338 B(  5-C ,  7-C ) :  -0.1371 B(  5-C ,  8-C ) :   0.2881
B(  5-C , 14-C ) :   0.2569 B(  5-C , 17-C ) :  -0.1449 B(  5-C , 20-C ) :   1.4298
B(  5-C , 21-C ) :   0.3818 B(  5-C , 25-C ) :  -0.2604 B(  6-C ,  7-C ) :   1.4241
B(  6-C ,  8-C ) :  -0.1643 B(  6-C ,  9-C ) :   0.1057 B(  6-C , 10-C ) :  -0.1712
B(  6-C , 18-C ) :  -0.1081 B(  6-C , 19-C ) :   0.3349 B(  6-C , 20-C ) :   0.2240
B(  7-C ,  8-C ) :   0.5636 B(  7-C ,  9-C ) :  -0.7581 B(  7-C , 15-C ) :   0.1518
B(  7-C , 16-C ) :  -0.1171 B(  7-C , 17-C ) :  -0.1086 B(  7-C , 18-C ) :   0.1097
B(  7-C , 19-C ) :   0.1010 B(  7-C , 20-C ) :   0.3911 B(  8-C ,  9-C ) :   1.1763
B(  8-C , 10-C ) :  -0.2548 B(  8-C , 11-C ) :   0.4701 B(  8-C , 14-C ) :   0.1088
B(  8-C , 15-C ) :  -0.1341 B(  8-C , 17-C ) :   0.3793 B(  8-C , 19-C ) :   1.1811
B(  8-C , 20-C ) :  -0.3001 B(  8-C , 21-C ) :  -0.2979 B(  9-C , 10-C ) :   1.7861
B(  9-C , 11-C ) :  -0.3321 B(  9-C , 13-C ) :  -0.1864 B(  9-C , 19-C ) :   0.2027
B(  9-C , 24-C ) :   0.1004 B(  9-C , 25-C ) :   0.4004 B( 10-C , 11-C ) :   0.9975
B( 10-C , 12-C ) :  -0.7331 B( 10-C , 17-C ) :  -0.1060 B( 10-C , 19-C ) :   0.3343
B( 10-C , 21-C ) :   0.1653 B( 10-C , 25-C ) :   0.1990 B( 11-C , 12-C ) :   0.7818
B( 11-C , 14-C ) :   0.2586 B( 11-C , 17-C ) :   0.1994 B( 11-C , 21-C ) :  -0.3953
B( 11-C , 24-C ) :  -0.4346 B( 11-C , 25-C ) :   1.1203 B( 12-C , 13-C ) :   1.1153
B( 12-C , 14-C ) :  -0.1785 B( 12-C , 17-C ) :  -0.1279 B( 12-C , 18-C ) :   0.1310
B( 12-C , 24-C ) :   0.3020 B( 12-C , 25-C ) :  -0.1597 B( 13-C , 14-C ) :   1.0249
B( 13-C , 15-C ) :  -0.1193 B( 13-C , 16-C ) :   0.2395 B( 13-C , 18-C ) :  -0.1351
B( 13-C , 20-C ) :   0.1415 B( 13-C , 24-C ) :   0.1422 B( 13-C , 25-C ) :   0.5100
B( 14-C , 15-C ) :   0.2846 B( 14-C , 16-C ) :  -0.4028 B( 14-C , 17-C ) :   0.5886
B( 14-C , 19-C ) :  -0.1801 B( 14-C , 21-C ) :   0.3091 B( 14-C , 22-H ) :  -0.4211
B( 14-C , 24-C ) :   1.8742 B( 15-C , 16-C ) :   1.0529 B( 15-C , 21-C ) :  -0.1406
B( 15-C , 22-H ) :   1.1583 B( 15-C , 24-C ) :   0.3885 B( 15-C , 25-C ) :   0.1391
B( 16-C , 17-C ) :   1.3325 B( 16-C , 21-C ) :   0.7892 B( 16-C , 23-H ) :   0.8582
B( 16-C , 24-C ) :   0.1728 B( 17-C , 18-C ) :  -0.2490 B( 18-C , 19-C ) :   0.3740
B( 18-C , 20-C ) :   1.1192 B( 18-C , 21-C ) :   1.8286 B( 18-C , 24-C ) :   1.2475
B( 18-C , 25-C ) :   0.3562 B( 19-C , 20-C ) :   1.2991 B( 19-C , 21-C ) :  -0.1926
B( 19-C , 24-C ) :   0.2991 B( 19-C , 25-C ) :   1.2397 B( 20-C , 21-C ) :   0.6928
B( 20-C , 25-C ) :   0.3779 B( 21-C , 24-C ) :   0.4678 B( 21-C , 25-C ) :  -0.1340
B( 24-C , 25-C ) :   1.2098

-----------------------------------------------------------------------------
         ABSORPTION SPECTRUM VIA TRANSITION ELECTRIC DIPOLE MOMENTS
-----------------------------------------------------------------------------
State   Energy    Wavelength  fosc         T2        TX        TY        TZ
        (cm-1)      (nm)                 (au**2)    (au)      (au)      (au)
-----------------------------------------------------------------------------
   1   10254.3    975.2   0.000002886   0.00009  -0.00000  -0.00001   0.00963
   2   11649.3    858.4   0.000353713   0.01000  -0.00002  -0.00010   0.09998
   3   11935.8    837.8   0.000033884   0.00093  -0.01449   0.02692   0.00003
   4   14968.0    668.1   0.009745400   0.21434  -0.41233  -0.21054  -0.00022
   5   16602.3    602.3   0.000000112   0.00000   0.00000  -0.00001   0.00149
   6   17039.0    586.9   0.000771128   0.01490   0.04667  -0.11279  -0.00011
   7   17094.8    585.0   0.000002087   0.00004   0.00001   0.00002  -0.00634
   8   17387.5    575.1   0.000200649   0.00380   0.02471  -0.05647  -0.00005
   9   17678.5    565.7   0.000180513   0.00336  -0.00000  -0.00005   0.05798
  10   18506.4    540.4   0.000002777   0.00005   0.00000   0.00001  -0.00703
  11   18920.4    528.5   0.000000064   0.00000  -0.00017  -0.00104  -0.00000
  12   19010.1    526.0   0.000044718   0.00077   0.00000  -0.00004   0.02783
  13   19328.8    517.4   0.000000905   0.00002  -0.00366  -0.00141  -0.00000
  14   19688.1    507.9   0.000001236   0.00002   0.00436   0.00130   0.00000
  15   20144.6    496.4   0.000000816   0.00001   0.00000   0.00000  -0.00365
  16   20483.9    488.2   0.000001237   0.00002  -0.00189   0.00404   0.00000
  17   20985.5    476.5   0.000117134   0.00184  -0.04005  -0.01528  -0.00002
  18   21693.2    461.0   0.000002494   0.00004  -0.00000   0.00001  -0.00615
  19   22054.2    453.4   0.000002541   0.00004   0.00000   0.00001  -0.00616
  20   22643.5    441.6   0.000000337   0.00000  -0.00000  -0.00000  -0.00221
  21   22698.3    440.6   0.000004407   0.00006   0.00129   0.00789   0.00012
  22   22704.1    440.4   0.000521273   0.00756  -0.00000   0.00009  -0.08694
  23   23047.4    433.9   0.000000892   0.00001  -0.00000   0.00001  -0.00357
  24   23548.9    424.6   0.024592548   0.34380   0.31759   0.49289   0.00050
  25   23653.8    422.8   0.000005939   0.00008   0.00001   0.00003  -0.00909
  26   23879.6    418.8   0.000000732   0.00001  -0.00002  -0.00004   0.00318
  27   24264.1    412.1   0.045999274   0.62411  -0.68395  -0.39538  -0.00042
  28   24570.0    407.0   0.020963659   0.28089   0.43502   0.30274   0.00033
  29   24650.8    405.7   0.000374747   0.00500   0.00015   0.00017  -0.07074
  30   24863.3    402.2   0.000145875   0.00193   0.00003   0.00006  -0.04395
  31   25283.7    395.5   0.000002561   0.00003   0.00001   0.00000   0.00577
  32   25780.4    387.9   0.000000033   0.00000   0.00000  -0.00000   0.00064
  33   25811.3    387.4   0.000021638   0.00028   0.00168   0.01653   0.00002
  34   26027.0    384.2   0.000043370   0.00055  -0.00769  -0.02212  -0.00002
  35   26043.3    384.0   0.000002346   0.00003   0.00000   0.00000   0.00545
  36   26632.1    375.5   0.000017938   0.00022  -0.00001   0.00001   0.01489
  37   26734.6    374.0   0.000185404   0.00228   0.00010  -0.00029   0.04778
  38   26829.1    372.7   0.012128405   0.14882   0.17949  -0.34148  -0.00036
  39   26931.6    371.3   0.062737600   0.76690  -0.38156   0.78824   0.00080
  40   27701.9    361.0   0.000139095   0.00165   0.03554  -0.01974  -0.00002
  41   27852.1    359.0   0.000002380   0.00003  -0.00000  -0.00000   0.00530
  42   28250.4    354.0   0.000717670   0.00836  -0.04869   0.07741   0.00008
  43   28700.2    348.4   0.000006194   0.00007  -0.00000   0.00001  -0.00843
  44   28966.8    345.2   0.000079253   0.00090  -0.00000  -0.00003   0.03001
  45   29239.9    342.0   0.000135973   0.00153   0.00000   0.00004  -0.03913
  46   29303.4    341.3   0.000000123   0.00000  -0.00001   0.00000  -0.00117
  47   29641.2    337.4   0.000017246   0.00019  -0.00001  -0.00001   0.01384
  48   30137.9    331.8   0.000109560   0.00120   0.00001   0.00002  -0.03459
  49   30149.4    331.7   0.000085618   0.00093  -0.00789  -0.02954  -0.00003
  50   30477.4    328.1   0.000194541   0.00210  -0.00000   0.00004  -0.04584
  51   30587.7    326.9   0.001437681   0.01547   0.05334  -0.11238  -0.00012
  52   30734.4    325.4   0.000099066   0.00106   0.03119  -0.00941  -0.00001
  53   30864.0    324.0   0.011503271   0.12270  -0.19737   0.28939   0.00029
  54   31048.0    322.1   0.000126906   0.00135   0.00000  -0.00002   0.03668
  55   31283.1    319.7   0.000047215   0.00050   0.00001  -0.00003   0.02229
  56   31510.9    317.4   0.003972025   0.04150   0.19954  -0.04099  -0.00005
  57   31854.1    313.9   0.002913815   0.03011  -0.01530   0.17286   0.00018
  58   31922.4    313.3   0.000138295   0.00143  -0.00001   0.00006  -0.03777
  59   32366.0    309.0   0.000003536   0.00004  -0.00000   0.00000   0.00600
  60   32446.0    308.2   0.000036026   0.00037  -0.00000  -0.00003   0.01912
  61   32606.3    306.7   0.010939787   0.11045  -0.26157  -0.20502  -0.00020
  62   32731.9    305.5   0.000167679   0.00169   0.03262   0.02495   0.00003
  63   32872.7    304.2   0.000047994   0.00048   0.00001  -0.00001   0.02192
  64   32976.8    303.2   0.000010166   0.00010   0.00000  -0.00002   0.01007
  65   33046.6    302.6   0.000012139   0.00012  -0.00001  -0.00000   0.01100
  66   33050.6    302.6   0.000188248   0.00188  -0.03688   0.02269   0.00000
  67   33183.4    301.4   0.000323005   0.00320  -0.00001   0.00004  -0.05661
  68   33223.2    301.0   0.000086494   0.00086   0.02447   0.01607   0.00001
  69   33258.7    300.7   0.000092317   0.00091   0.00001   0.00003  -0.03023
  70   33526.0    298.3   0.000000090   0.00000   0.00001   0.00001   0.00094
  71   34013.3    294.0   0.020105115   0.19460   0.27208  -0.34723  -0.00035
  72   34107.1    293.2   0.000475633   0.00459  -0.00001   0.00007  -0.06776
  73   34143.8    292.9   0.000023188   0.00022  -0.00000  -0.00001   0.01495
  74   34289.4    291.6   0.000191385   0.00184  -0.04140  -0.01110  -0.00001
  75   34397.3    290.7   0.000810450   0.00776  -0.05129  -0.07160  -0.00007
  76   34482.7    290.0   0.007605035   0.07261  -0.10238   0.24925   0.00026
  77   34736.9    287.9   0.002336146   0.02214   0.11871   0.08972   0.00012
  78   34798.8    287.4   0.000157203   0.00149  -0.00001  -0.00004   0.03856
  79   34850.2    286.9   0.001164111   0.01100   0.00001  -0.00014   0.10487
  80   34879.5    286.7   0.006678033   0.06303  -0.25090   0.00907   0.00002
  81   34985.4    285.8   0.003598852   0.03387   0.07954  -0.16595  -0.00017
  82   35042.5    285.4   0.000121409   0.00114  -0.01333  -0.03103  -0.00003
  83   35085.4    285.0   0.001533959   0.01439   0.09728  -0.07022  -0.00007
  84   35104.4    284.9   0.000051566   0.00048  -0.00005   0.00006  -0.02199
  85   35179.6    284.3   0.014854448   0.13901   0.34689  -0.13667  -0.00014
  86   35353.7    282.9   0.000554471   0.00516  -0.00007   0.00012  -0.07186
  87   35475.9    281.9   0.005772764   0.05357  -0.14573   0.17981   0.00018
  88   35685.9    280.2   0.000019337   0.00018   0.00068  -0.00025  -0.01334
  89   35687.9    280.2   0.006274882   0.05788  -0.22293   0.09049   0.00005
  90   35760.8    279.6   0.003772860   0.03473   0.17020   0.07593   0.00008
  91   35796.1    279.4   0.000055547   0.00051   0.00005  -0.00002  -0.02260
  92   35839.8    279.0   0.000007013   0.00006   0.00001   0.00009   0.00803
  93   35892.1    278.6   0.018980407   0.17409  -0.18476   0.37411   0.00038
  94   35976.9    278.0   0.000150786   0.00138   0.01348  -0.03461  -0.00004
  95   36138.5    276.7   0.000014474   0.00013  -0.00001   0.00001   0.01148
  96   36252.6    275.8   0.000012184   0.00011  -0.00002   0.00001  -0.01052
  97   36443.5    274.4   0.000432993   0.00391  -0.01852   0.05974   0.00006
  98   36473.7    274.2   0.000007327   0.00007  -0.00005   0.00008   0.00813
  99   36542.1    273.7   0.007190504   0.06478  -0.11596   0.22657   0.00023
 100   36775.1    271.9   0.007522922   0.06735   0.14730  -0.21366  -0.00022
 101   36959.1    270.6   0.000020753   0.00018   0.00001   0.00001  -0.01360
 102   37004.1    270.2   0.000020267   0.00018   0.00000   0.00003  -0.01343
 103   37058.7    269.8   0.001103332   0.00980   0.02765   0.09506   0.00009
 104   37110.5    269.5   0.000055677   0.00049   0.00002   0.00003  -0.02222
 105   37169.4    269.0   0.000751727   0.00666   0.00001  -0.00009   0.08160
 106   37222.7    268.7   0.001099070   0.00972  -0.02369   0.09571   0.00010
 107   37335.3    267.8   0.008691410   0.07664  -0.16700  -0.22079  -0.00022
 108   37421.1    267.2   0.005808187   0.05110  -0.22077  -0.04856  -0.00005
 109   37553.5    266.3   0.000618632   0.00542   0.06757  -0.02928  -0.00005
 110   37597.1    266.0   0.000506761   0.00444   0.00005  -0.00006   0.06661
 111   37676.3    265.4   0.000507040   0.00443  -0.06553   0.01170   0.00001
 112   37692.5    265.3   0.000005335   0.00005   0.00001   0.00000  -0.00683
 113   37826.7    264.4   0.000023743   0.00021  -0.00002   0.00002   0.01437
 114   37972.5    263.3   0.002457360   0.02130  -0.04604  -0.13851  -0.00014
 115   38053.1    262.8   0.000183920   0.00159  -0.00002  -0.00006   0.03989
 116   38165.3    262.0   0.024598916   0.21219  -0.06393  -0.45618  -0.00046
 117   38376.2    260.6   0.000122818   0.00105   0.00000   0.00005  -0.03246
 118   38496.5    259.8   0.000332941   0.00285  -0.00001  -0.00013   0.05336
 119   38559.2    259.3   0.012790618   0.10920  -0.12335   0.30658   0.00032
 120   38643.5    258.8   0.016186547   0.13790  -0.16157  -0.33435  -0.00034
 121   38737.6    258.1   0.000382773   0.00325  -0.00016  -0.00006   0.05703
 122   38780.8    257.9   0.153491816   1.30300   1.14137   0.01679   0.00003
 123   38928.4    256.9   0.000022991   0.00019   0.00001   0.00001  -0.01394
 124   39052.7    256.1   0.000181316   0.00153  -0.00001  -0.00000   0.03910
 125   39134.3    255.5   0.000000013   0.00000  -0.00004  -0.00004   0.00033
 126   39238.4    254.9   0.015918385   0.13356   0.24341   0.27259   0.00028
 127   39297.2    254.5   0.007291137   0.06108   0.17864   0.17079   0.00017
 128   39440.0    253.6   0.000007148   0.00006   0.00000   0.00001  -0.00772
 129   39524.5    253.0   0.000010737   0.00009  -0.00002   0.00002   0.00946
 130   39762.6    251.5   0.058639493   0.48550  -0.02047  -0.69648  -0.00070
 131   39920.8    250.5   0.000011417   0.00009   0.00000  -0.00001  -0.00970
 132   40003.8    250.0   0.012001448   0.09877  -0.09427  -0.29980  -0.00030
 133   40052.0    249.7   0.000284921   0.00234  -0.00001   0.00001   0.04839
 134   40119.4    249.3   0.006533868   0.05362  -0.04559   0.22702   0.00023
 135   40237.3    248.5   0.000069064   0.00057  -0.02354  -0.00330  -0.00001
 136   40380.1    247.6   0.000091117   0.00074  -0.00001   0.00001  -0.02726
 137   40451.5    247.2   0.055426096   0.45108  -0.17980   0.64711   0.00065
 138   40547.8    246.6   0.008514789   0.06913   0.01197   0.26266   0.00026
 139   40607.8    246.3   0.000062204   0.00050   0.00005  -0.00011  -0.02246
 140   40709.2    245.6   0.023576069   0.19066   0.15290  -0.40900  -0.00040
 141   40744.0    245.4   0.000019451   0.00016  -0.00005   0.00011  -0.01254
 142   40979.7    244.0   0.001401170   0.01126   0.06481  -0.08400  -0.00008
 143   41028.2    243.7   0.000024395   0.00020  -0.00003   0.00003   0.01399
 144   41082.3    243.4   0.046755790   0.37468   0.35082  -0.50160  -0.00051
 145   41202.2    242.7   0.000191127   0.00153   0.00006  -0.00011   0.03908
 146   41298.7    242.1   0.000007532   0.00006  -0.00004   0.00005  -0.00775
 147   41534.3    240.8   0.001021270   0.00809  -0.06253   0.06469   0.00014
 148   41536.4    240.8   0.000018303   0.00015   0.00041  -0.00043   0.01203
 149   41628.5    240.2   0.012100629   0.09570   0.26996  -0.15105  -0.00016
 150   41644.4    240.1   0.000002669   0.00002  -0.00012   0.00006  -0.00459
 151   41703.8    239.8   0.001756876   0.01387  -0.00003  -0.00010   0.11777
 152   41845.4    239.0   0.000996980   0.00784   0.06788  -0.05688  -0.00005
 153   41908.6    238.6   0.000804215   0.00632  -0.00011   0.00010   0.07948
 154   42059.6    237.8   0.178321038   1.39577  -0.58010   1.02920   0.00102
 155   42342.9    236.2   0.000000233   0.00000  -0.00000   0.00006  -0.00135
 156   42375.2    236.0   0.000417251   0.00324  -0.00005  -0.00010   0.05694
 157   42386.8    235.9   0.000046541   0.00036  -0.00002   0.00002  -0.01901
 158   42464.1    235.5   0.025595860   0.19844  -0.37491  -0.24058  -0.00025
 159   42559.4    235.0   0.000916314   0.00709   0.00001  -0.00008   0.08419
 160   42598.1    234.8   0.008658878   0.06692   0.19703   0.16762   0.00016
 161   42670.2    234.4   0.000043956   0.00034   0.00001  -0.00003   0.01842
 162   42753.7    233.9   0.003369811   0.02595  -0.13955  -0.08047  -0.00009
 163   42789.6    233.7   0.000000102   0.00000   0.00007   0.00000   0.00088
 164   43024.8    232.4   0.041729656   0.31930   0.02785   0.56438   0.00057
 165   43436.9    230.2   0.009407995   0.07130   0.19181   0.18577   0.00019
 166   43653.3    229.1   0.063237810   0.47691  -0.56704  -0.39417  -0.00041
 167   43790.4    228.4   0.001120994   0.00843   0.03800  -0.08357  -0.00008
 168   43813.9    228.2   0.000019574   0.00015   0.00003   0.00000  -0.01213
 169   43891.5    227.8   0.008939432   0.06705  -0.16930   0.19593   0.00020
 170   44159.1    226.5   0.004175121   0.03113   0.13405  -0.11471  -0.00011
 171   44374.1    225.4   0.011539732   0.08561   0.29256   0.00468   0.00001
 172   44612.6    224.2   0.003412365   0.02518  -0.04672  -0.15165  -0.00016
 173   44787.1    223.3   0.347504072   2.55436  -0.53567   1.50579   0.00152
 174   44893.5    222.7   0.000002758   0.00002   0.00002  -0.00009   0.00450
 175   44991.0    222.3   0.003394592   0.02484  -0.15018   0.04781   0.00005
 176   45122.6    221.6   0.000096939   0.00071   0.00001  -0.00006   0.02659
 177   45338.6    220.6   0.000581247   0.00422   0.00052  -0.00047   0.06496
 178   45346.5    220.5   0.064016175   0.46475   0.55385  -0.39750  -0.00047
 179   45442.8    220.1   0.330895776   2.39719   1.17137  -1.01247  -0.00100
 180   45619.6    219.2   0.000970664   0.00700  -0.00004  -0.00006   0.08369
 181   45637.2    219.1   0.001063804   0.00767   0.05952  -0.06427  -0.00008
 182   45738.4    218.6   0.000329021   0.00237  -0.00003  -0.00003   0.04866
 183   45968.9    217.5   0.000014341   0.00010  -0.00000   0.00000   0.01013
 184   46027.3    217.3   0.000054188   0.00039   0.00001  -0.00002   0.01969
 185   46241.6    216.3   0.001220819   0.00869   0.04464  -0.08184  -0.00008
 186   46289.3    216.0   0.000364961   0.00260   0.04029   0.03118   0.00003
 187   46497.3    215.1   0.023167219   0.16403  -0.16464   0.37003   0.00038
 188   46720.4    214.0   0.000211870   0.00149  -0.00000  -0.00005   0.03864
 189   47065.7    212.5   0.005368697   0.03755   0.18299  -0.06378  -0.00007
 190   47279.6    211.5   0.000025829   0.00018   0.00001   0.00001  -0.01341
 191   47411.2    210.9   0.000000262   0.00000   0.00000   0.00002  -0.00135
 192   47642.5    209.9   0.000000063   0.00000   0.00000   0.00001  -0.00066
 193   47808.5    209.2   0.033756069   0.23245   0.45744  -0.15231  -0.00015
 194   47874.9    208.9   0.023190736   0.15947  -0.39926   0.00783   0.00001
 195   47894.1    208.8   0.000012925   0.00009  -0.00022   0.00005  -0.00942
 196   47932.3    208.6   0.012339937   0.08475   0.07278  -0.28188  -0.00029

Dispersion correction           -0.089981440
FINAL SINGLE POINT ENERGY      -914.818268552871

DIPOLE MOMENT
-------------
                                X             Y             Z
Electronic contribution:     -7.44504       0.24810       0.00016
Nuclear contribution   :      8.24692      -0.19037      -0.00009
                        -----------------------------------------
Total Dipole Moment    :      0.80188       0.05772       0.00007
                        -----------------------------------------
Magnitude (a.u.)       :      0.80396
Magnitude (Debye)      :      2.04350

Rotational constants in cm-1:     0.014386     0.010047     0.005916
Rotational constants in MHz :   431.272117   301.203769   177.344797

                             ****ORCA TERMINATED NORMALLY****
TOTAL RUN TIME: 0 days 8 hours 44 minutes 55 seconds 421 msec
