                         Program Version 5.0.4 -  RELEASE  -
|  1> !B3LYP 6-311G** VERYTIGHTOPT FREQ D3 PAL4
|  2> %GEOM
|  3>   Maxiter 1500
|  4>   end
|  5>
|  6> * xyz 0 1
|  7> C          2.46639       -2.78404       -0.00002
|  8> C          1.26559       -3.49747       -0.00002
|  9> C          0.03530       -2.82705       -0.00009
| 10> C         -1.17786       -3.52798       -0.00009
| 11> C         -2.39610       -2.84477       -0.00019
| 12> C         -2.43064       -1.44410       -0.00027
| 13> C         -3.64425       -0.74394       -0.00039
| 14> C         -3.66169        0.65270       -0.00045
| 15> C         -2.46595        1.38295       -0.00038
| 16> C         -2.46639        2.78404       -0.00041
| 17> C         -1.26559        3.49747       -0.00034
| 18> C         -0.03530        2.82705       -0.00026
| 19> C          1.17786        3.52798       -0.00020
| 20> C          2.39610        2.84477       -0.00015
| 21> C          2.43064        1.44410       -0.00015
| 22> C          3.64425        0.74394       -0.00011
| 23> C          3.66169       -0.65270       -0.00008
| 24> C          2.46595       -1.38295       -0.00008
| 25> C          1.23361       -0.69183       -0.00014
| 26> C          1.21595        0.72242       -0.00018
| 27> C         -0.01766        1.41425       -0.00024
| 28> C         -1.23361        0.69183       -0.00029
| 29> C         -1.21595       -0.72242       -0.00024
| 30> C          0.01766       -1.41425       -0.00015
| 31> H          3.40434       -3.33493        0.00002
| 32> H          1.30086       -4.58466        0.00004
| 33> H         -1.18597       -4.61571       -0.00003
| 34> H         -3.32000       -3.41891       -0.00020
| 35> H         -4.59031       -1.28078       -0.00043
| 36> H         -4.62086        1.16575       -0.00054
| 37> H         -3.40434        3.33493       -0.00048
| 38> H         -1.30086        4.58466       -0.00036
| 39> H          1.18597        4.61571       -0.00020
| 40> H          3.32000        3.41891       -0.00012
| 41> H          4.59031        1.28078       -0.00010
| 42> H          4.62086       -1.16575       -0.00005
| 43> **                         ****END OF INPUT****
 Total Charge           Charge          ....    0
 Multiplicity           Mult            ....    1
 Number of Electrons    NEL             ....  156
Dispersion correction           -0.104953011
FINAL SINGLE POINT ENERGY      -921.591594669824
Dispersion correction            ... done
Dispersion correction           -0.104689222
FINAL SINGLE POINT ENERGY      -921.598928940207
Dispersion correction            ... done
Dispersion correction           -0.104599574
FINAL SINGLE POINT ENERGY      -921.600227010141
Dispersion correction            ... done
FINAL SINGLE POINT ENERGY      -921.600360524906
FINAL SINGLE POINT ENERGY      -921.600425548901
Dispersion correction           -0.104643083
FINAL SINGLE POINT ENERGY      -921.600427830466
Dispersion correction            ... done
Dispersion correction           -0.104643880
FINAL SINGLE POINT ENERGY      -921.600428028967
Dispersion correction            ... done
                    ***********************HURRAY********************

CARTESIAN COORDINATES (ANGSTROEM)
---------------------------------
  C      2.467384   -2.812638   -0.000010
  C      1.290215   -3.512014   -0.000041
  C      0.035458   -2.843572   -0.000117
  C     -1.202188   -3.543187   -0.000151
  C     -2.396482   -2.873437   -0.000224
  C     -2.444831   -1.452569   -0.000268
  C     -3.669535   -0.730519   -0.000345
  C     -3.686619    0.638615   -0.000387
  C     -2.480332    1.391010   -0.000357
  C     -2.467384    2.812638   -0.000400
  C     -1.290215    3.512014   -0.000369
  C     -0.035458    2.843572   -0.000293
  C      1.202188    3.543187   -0.000259
  C      2.396482    2.873437   -0.000186
  C      2.444831    1.452569   -0.000140
  C      3.669535    0.730519   -0.000064
  C      3.686619   -0.638615   -0.000022
  C      2.480332   -1.391010   -0.000052
  C      1.242835   -0.697002   -0.000128
  C      1.225078    0.727858   -0.000173
  C     -0.017789    1.424883   -0.000248
  C     -1.242835    0.697002   -0.000281
  C     -1.225078   -0.727858   -0.000237
  C      0.017789   -1.424883   -0.000161
  H      3.415501   -3.342097    0.000049
  H      1.301693   -4.597875   -0.000007
  H     -1.186323   -4.628982   -0.000118
  H     -3.331149   -3.426278   -0.000249
  H     -4.602005   -1.287008   -0.000369
  H     -4.632714    1.171613   -0.000446
  H     -3.415501    3.342097   -0.000460
  H     -1.301693    4.597875   -0.000403
  H      1.186323    4.628982   -0.000293
  H      3.331149    3.426278   -0.000160
  H      4.602005    1.287008   -0.000039
  H      4.632714   -1.171613    0.000037

 Multiplicity           Mult            ....    1
 Number of Electrons    NEL             ....  156
 Basis Dimension        Dim             ....  468

ORBITAL ENERGIES
----------------

  NO   OCC          E(Eh)            E(eV)
   0   2.0000     -10.184995      -277.1478
   1   2.0000     -10.184843      -277.1437
   2   2.0000     -10.184842      -277.1436
   3   2.0000     -10.184596      -277.1369
   4   2.0000     -10.184594      -277.1369
   5   2.0000     -10.184541      -277.1354
   6   2.0000     -10.184327      -277.1296
   7   2.0000     -10.184298      -277.1288
   8   2.0000     -10.184296      -277.1288
   9   2.0000     -10.184115      -277.1239
  10   2.0000     -10.184114      -277.1238
  11   2.0000     -10.183953      -277.1195
  12   2.0000     -10.176368      -276.9130
  13   2.0000     -10.176364      -276.9130
  14   2.0000     -10.176357      -276.9128
  15   2.0000     -10.176348      -276.9125
  16   2.0000     -10.176341      -276.9123
  17   2.0000     -10.176331      -276.9121
  18   2.0000     -10.175731      -276.8957
  19   2.0000     -10.175728      -276.8956
  20   2.0000     -10.175721      -276.8954
  21   2.0000     -10.175717      -276.8953
  22   2.0000     -10.175711      -276.8952
  23   2.0000     -10.175711      -276.8952
  24   2.0000      -0.908131       -24.7115
  25   2.0000      -0.871688       -23.7198
  26   2.0000      -0.871687       -23.7198
  27   2.0000      -0.824854       -22.4454
  28   2.0000      -0.824851       -22.4453
  29   2.0000      -0.808232       -21.9931
  30   2.0000      -0.777667       -21.1614
  31   2.0000      -0.762712       -20.7544
  32   2.0000      -0.745673       -20.2908
  33   2.0000      -0.745667       -20.2906
  34   2.0000      -0.713942       -19.4273
  35   2.0000      -0.713941       -19.4273
  36   2.0000      -0.637355       -17.3433
  37   2.0000      -0.637348       -17.3431
  38   2.0000      -0.634039       -17.2531
  39   2.0000      -0.634035       -17.2530
  40   2.0000      -0.626619       -17.0512
  41   2.0000      -0.565054       -15.3759
  42   2.0000      -0.557573       -15.1723
  43   2.0000      -0.541373       -14.7315
  44   2.0000      -0.541372       -14.7315
  45   2.0000      -0.538810       -14.6618
  46   2.0000      -0.518169       -14.1001
  47   2.0000      -0.477828       -13.0024
  48   2.0000      -0.477824       -13.0022
  49   2.0000      -0.461332       -12.5535
  50   2.0000      -0.461321       -12.5532
  51   2.0000      -0.458174       -12.4676
  52   2.0000      -0.458162       -12.4672
  53   2.0000      -0.430517       -11.7150
  54   2.0000      -0.428279       -11.6541
  55   2.0000      -0.423960       -11.5365
  56   2.0000      -0.423941       -11.5360
  57   2.0000      -0.420531       -11.4432
  58   2.0000      -0.404967       -11.0197
  59   2.0000      -0.404963       -11.0196
  60   2.0000      -0.386035       -10.5045
  61   2.0000      -0.386033       -10.5045
  62   2.0000      -0.377598       -10.2750
  63   2.0000      -0.377206       -10.2643
  64   2.0000      -0.363026        -9.8784
  65   2.0000      -0.362988        -9.8774
  66   2.0000      -0.362976        -9.8771
  67   2.0000      -0.332155        -9.0384
  68   2.0000      -0.332155        -9.0384
  69   2.0000      -0.319867        -8.7040
  70   2.0000      -0.319846        -8.7034
  71   2.0000      -0.316853        -8.6220
  72   2.0000      -0.272048        -7.4028
  73   2.0000      -0.269296        -7.3279
  74   2.0000      -0.252902        -6.8818
  75   2.0000      -0.252899        -6.8817
  76   2.0000      -0.205787        -5.5998
  77   2.0000      -0.205786        -5.5997
  78   0.0000      -0.057813        -1.5732
  79   0.0000      -0.057810        -1.5731
  80   0.0000      -0.019466        -0.5297
  81   0.0000      -0.019460        -0.5295
  82   0.0000       0.000114         0.0031

MULLIKEN ATOMIC CHARGES
-----------------------
   0 C :   -0.224084
   1 C :   -0.224384
   2 C :    0.073570
   3 C :   -0.224300
   4 C :   -0.224130
   5 C :    0.073332
   6 C :   -0.224128
   7 C :   -0.224081
   8 C :    0.073325
   9 C :   -0.224043
  10 C :   -0.224361
  11 C :    0.073539
  12 C :   -0.224306
  13 C :   -0.224128
  14 C :    0.073359
  15 C :   -0.224129
  16 C :   -0.224087
  17 C :    0.073364
  18 C :   -0.007090
  19 C :   -0.006987
  20 C :   -0.006905
  21 C :   -0.007088
  22 C :   -0.007025
  23 C :   -0.006881
  24 H :    0.190925
  25 H :    0.191090
  26 H :    0.191125
  27 H :    0.190981
  28 H :    0.190851
  29 H :    0.190848
  30 H :    0.190933
  31 H :    0.191102
  32 H :    0.191124
  33 H :    0.190982
  34 H :    0.190853
  35 H :    0.190833
Sum of atomic charges:   -0.0000000

LOEWDIN ATOMIC CHARGES
----------------------
   0 C :   -0.092982
   1 C :   -0.093008
   2 C :   -0.031516
   3 C :   -0.093005
   4 C :   -0.092989
   5 C :   -0.031516
   6 C :   -0.092972
   7 C :   -0.092973
   8 C :   -0.031518
   9 C :   -0.092982
  10 C :   -0.093008
  11 C :   -0.031516
  12 C :   -0.093005
  13 C :   -0.092989
  14 C :   -0.031516
  15 C :   -0.092972
  16 C :   -0.092973
  17 C :   -0.031517
  18 C :    0.000915
  19 C :    0.000917
  20 C :    0.000920
  21 C :    0.000915
  22 C :    0.000917
  23 C :    0.000920
  24 H :    0.108291
  25 H :    0.108294
  26 H :    0.108297
  27 H :    0.108299
  28 H :    0.108272
  29 H :    0.108271
  30 H :    0.108291
  31 H :    0.108294
  32 H :    0.108297
  33 H :    0.108299
  34 H :    0.108272
  35 H :    0.108271

  Mayer bond orders larger than 0.100000
B(  0-C ,  1-C ) :   1.5760 B(  0-C , 17-C ) :   1.2499 B(  0-C , 24-H ) :   0.9283
B(  1-C ,  2-C ) :   1.2498 B(  1-C , 25-H ) :   0.9281 B(  2-C ,  3-C ) :   1.2500
B(  2-C , 23-C ) :   1.3340 B(  3-C ,  4-C ) :   1.5759 B(  3-C , 26-H ) :   0.9281
B(  4-C ,  5-C ) :   1.2500 B(  4-C , 27-H ) :   0.9282 B(  5-C ,  6-C ) :   1.2498
B(  5-C , 22-C ) :   1.3340 B(  6-C ,  7-C ) :   1.5759 B(  6-C , 28-H ) :   0.9283
B(  7-C ,  8-C ) :   1.2498 B(  7-C , 29-H ) :   0.9283 B(  8-C ,  9-C ) :   1.2500
B(  8-C , 21-C ) :   1.3339 B(  9-C , 10-C ) :   1.5760 B(  9-C , 30-H ) :   0.9282
B( 10-C , 11-C ) :   1.2499 B( 10-C , 31-H ) :   0.9281 B( 11-C , 12-C ) :   1.2500
B( 11-C , 20-C ) :   1.3340 B( 12-C , 13-C ) :   1.5759 B( 12-C , 32-H ) :   0.9281
B( 13-C , 14-C ) :   1.2500 B( 13-C , 33-H ) :   0.9282 B( 14-C , 15-C ) :   1.2498
B( 14-C , 19-C ) :   1.3340 B( 15-C , 16-C ) :   1.5758 B( 15-C , 34-H ) :   0.9283
B( 16-C , 17-C ) :   1.2498 B( 16-C , 35-H ) :   0.9283 B( 17-C , 18-C ) :   1.3339
B( 18-C , 19-C ) :   1.2749 B( 18-C , 23-C ) :   1.2743 B( 19-C , 20-C ) :   1.2742
B( 20-C , 21-C ) :   1.2743 B( 21-C , 22-C ) :   1.2749 B( 22-C , 23-C ) :   1.2742

Dispersion correction           -0.104643675
FINAL SINGLE POINT ENERGY      -921.600428030261

DIPOLE MOMENT
-------------
                                X             Y             Z
Electronic contribution:      0.00000      -0.00000       0.00000
Nuclear contribution   :      0.00000       0.00000      -0.00000
                        -----------------------------------------
Total Dipole Moment    :      0.00000      -0.00000      -0.00000
                        -----------------------------------------
Magnitude (a.u.)       :      0.00000
Magnitude (Debye)      :      0.00000

Dispersion correction in the Hessian             ... done   (      6.5 sec)

VIBRATIONAL FREQUENCIES
-----------------------

Scaling factor for frequencies =  1.000000000  (already applied!)

   0:         0.00 cm**-1
   1:         0.00 cm**-1
   2:         0.00 cm**-1
   3:         0.00 cm**-1
   4:         0.00 cm**-1
   5:         0.00 cm**-1
   6:        87.91 cm**-1
   7:        87.94 cm**-1
   8:       124.40 cm**-1
   9:       164.51 cm**-1
  10:       225.63 cm**-1
  11:       294.93 cm**-1
  12:       294.97 cm**-1
  13:       300.73 cm**-1
  14:       300.82 cm**-1
  15:       371.96 cm**-1
  16:       372.00 cm**-1
  17:       387.16 cm**-1
  18:       387.20 cm**-1
  19:       454.95 cm**-1
  20:       455.06 cm**-1
  21:       483.61 cm**-1
  22:       492.23 cm**-1
  23:       500.95 cm**-1
  24:       501.02 cm**-1
  25:       528.70 cm**-1
  26:       551.02 cm**-1
  27:       551.10 cm**-1
  28:       561.70 cm**-1
  29:       568.43 cm**-1
  30:       619.27 cm**-1
  31:       649.47 cm**-1
  32:       668.62 cm**-1
  33:       668.66 cm**-1
  34:       683.57 cm**-1
  35:       694.07 cm**-1
  36:       694.09 cm**-1
  37:       764.72 cm**-1
  38:       769.87 cm**-1
  39:       769.91 cm**-1
  40:       786.64 cm**-1
  41:       789.61 cm**-1
  42:       789.67 cm**-1
  43:       811.32 cm**-1
  44:       811.33 cm**-1
  45:       830.45 cm**-1
  46:       830.48 cm**-1
  47:       845.24 cm**-1
  48:       845.28 cm**-1
  49:       865.78 cm**-1
  50:       935.99 cm**-1
  51:       942.67 cm**-1
  52:       942.70 cm**-1
  53:       946.37 cm**-1
  54:       953.57 cm**-1
  55:       953.60 cm**-1
  56:       962.32 cm**-1
  57:      1015.74 cm**-1
  58:      1015.81 cm**-1
  59:      1055.17 cm**-1
  60:      1163.32 cm**-1
  61:      1164.88 cm**-1
  62:      1164.96 cm**-1
  63:      1187.04 cm**-1
  64:      1187.08 cm**-1
  65:      1190.63 cm**-1
  66:      1219.37 cm**-1
  67:      1242.92 cm**-1
  68:      1242.98 cm**-1
  69:      1252.95 cm**-1
  70:      1255.43 cm**-1
  71:      1255.44 cm**-1
  72:      1263.38 cm**-1
  73:      1345.27 cm**-1
  74:      1345.29 cm**-1
  75:      1376.78 cm**-1
  76:      1378.09 cm**-1
  77:      1428.82 cm**-1
  78:      1428.84 cm**-1
  79:      1428.86 cm**-1
  80:      1428.88 cm**-1
  81:      1453.64 cm**-1
  82:      1470.52 cm**-1
  83:      1470.56 cm**-1
  84:      1488.52 cm**-1
  85:      1488.55 cm**-1
  86:      1522.76 cm**-1
  87:      1540.08 cm**-1
  88:      1540.10 cm**-1
  89:      1579.51 cm**-1
  90:      1588.33 cm**-1
  91:      1644.65 cm**-1
  92:      1657.65 cm**-1
  93:      1657.68 cm**-1
  94:      1658.87 cm**-1
  95:      1658.90 cm**-1
  96:      3154.13 cm**-1
  97:      3154.97 cm**-1
  98:      3155.23 cm**-1
  99:      3156.95 cm**-1
 100:      3157.18 cm**-1
 101:      3158.14 cm**-1
 102:      3172.22 cm**-1
 103:      3173.41 cm**-1
 104:      3173.60 cm**-1
 105:      3175.48 cm**-1
 106:      3175.71 cm**-1
 107:      3177.21 cm**-1

IR SPECTRUM
-----------

 Mode   freq       eps      Int      T**2         TX        TY        TZ
       cm**-1   L/(mol*cm) km/mol    a.u.
----------------------------------------------------------------------------
  6:     87.91   0.000000    0.00  0.000000  (-0.000001  0.000003 -0.000115)
  7:     87.94   0.000000    0.00  0.000000  ( 0.000004  0.000005 -0.000110)
  8:    124.40   0.001380    6.97  0.003461  (-0.000004  0.000001 -0.058831)
  9:    164.51   0.000000    0.00  0.000000  ( 0.000000 -0.000000 -0.000000)
 10:    225.63   0.000000    0.00  0.000000  ( 0.000000 -0.000000  0.000000)
 11:    294.93   0.000000    0.00  0.000000  ( 0.000000  0.000000  0.000000)
 12:    294.97   0.000000    0.00  0.000000  ( 0.000000 -0.000000  0.000000)
 13:    300.73   0.000000    0.00  0.000000  (-0.000002  0.000002 -0.000012)
 14:    300.82   0.000000    0.00  0.000000  ( 0.000002  0.000001  0.000022)
 15:    371.96   0.000000    0.00  0.000000  (-0.000000 -0.000000  0.000000)
 16:    372.00   0.000000    0.00  0.000000  ( 0.000000  0.000000 -0.000000)
 17:    387.16   0.000713    3.61  0.000575  (-0.004179  0.023612 -0.000001)
 18:    387.20   0.000713    3.60  0.000575  ( 0.023605  0.004170  0.000001)
 19:    454.95   0.000000    0.00  0.000000  (-0.000000  0.000000  0.000000)
 20:    455.06   0.000000    0.00  0.000000  ( 0.000000  0.000000  0.000000)
 21:    483.61   0.000000    0.00  0.000000  (-0.000012 -0.000011  0.000000)
 22:    492.23   0.000000    0.00  0.000000  (-0.000000  0.000000 -0.000000)
 23:    500.95   0.000000    0.00  0.000000  ( 0.000000 -0.000000 -0.000000)
 24:    501.02   0.000000    0.00  0.000000  (-0.000000 -0.000000 -0.000000)
 25:    528.70   0.000000    0.00  0.000000  (-0.000000 -0.000001  0.000014)
 26:    551.02   0.000000    0.00  0.000000  (-0.000001 -0.000000  0.000164)
 27:    551.10   0.000000    0.00  0.000000  ( 0.000002  0.000003  0.000011)
 28:    561.70   0.007769   39.26  0.004316  (-0.000000 -0.000001 -0.065698)
 29:    568.43   0.000000    0.00  0.000000  ( 0.000002 -0.000004  0.000000)
 30:    619.27   0.000000    0.00  0.000000  (-0.000000  0.000001 -0.000000)
 31:    649.47   0.000000    0.00  0.000000  ( 0.000000  0.000000  0.000000)
 32:    668.62   0.000000    0.00  0.000000  (-0.000000  0.000001  0.000001)
 33:    668.66   0.000000    0.00  0.000000  ( 0.000001  0.000000  0.000000)
 34:    683.57   0.000000    0.00  0.000000  ( 0.000001 -0.000008  0.000000)
 35:    694.07   0.000000    0.00  0.000000  (-0.000000 -0.000000 -0.000000)
 36:    694.09   0.000000    0.00  0.000000  ( 0.000000 -0.000000  0.000000)
 37:    764.72   0.000000    0.00  0.000000  (-0.000000 -0.000000 -0.000000)
 38:    769.87   0.000000    0.00  0.000000  ( 0.000000  0.000002 -0.000050)
 39:    769.91   0.000000    0.00  0.000000  ( 0.000002  0.000002 -0.000005)
 40:    786.64   0.000000    0.00  0.000000  (-0.000001  0.000003 -0.000000)
 41:    789.61   0.001264    6.39  0.000500  ( 0.003020  0.022149 -0.000001)
 42:    789.67   0.001261    6.37  0.000498  ( 0.022117 -0.003020  0.000001)
 43:    811.32   0.000000    0.00  0.000000  ( 0.000002 -0.000001 -0.000016)
 44:    811.33   0.000000    0.00  0.000000  (-0.000000 -0.000000 -0.000025)
 45:    830.45   0.000000    0.00  0.000000  ( 0.000026  0.000231 -0.000000)
 46:    830.48   0.000000    0.00  0.000000  (-0.000275  0.000029 -0.000001)
 47:    845.24   0.000000    0.00  0.000000  ( 0.000000 -0.000000  0.000001)
 48:    845.28   0.000000    0.00  0.000000  ( 0.000000  0.000000  0.000000)
 49:    865.78   0.033910  171.37  0.012223  (-0.000000 -0.000001 -0.110555)
 50:    935.99   0.000000    0.00  0.000000  (-0.000001 -0.000002 -0.000011)
 51:    942.67   0.000000    0.00  0.000000  (-0.000000 -0.000000 -0.000001)
 52:    942.70   0.000000    0.00  0.000000  ( 0.000000  0.000000 -0.000001)
 53:    946.37   0.000000    0.00  0.000000  ( 0.000000  0.000000  0.000000)
 54:    953.57   0.000000    0.00  0.000000  ( 0.000003  0.000005 -0.000025)
 55:    953.60   0.000000    0.00  0.000000  ( 0.000000  0.000002  0.000024)
 56:    962.32   0.000000    0.00  0.000000  ( 0.000000  0.000001 -0.000000)
 57:   1015.74   0.000000    0.00  0.000000  (-0.000000  0.000000 -0.000000)
 58:   1015.81   0.000000    0.00  0.000000  (-0.000000  0.000000 -0.000000)
 59:   1055.17   0.000000    0.00  0.000000  (-0.000000  0.000000 -0.000000)
 60:   1163.32   0.000000    0.00  0.000000  ( 0.000078  0.000198 -0.000000)
 61:   1164.88   0.001765    8.92  0.000473  (-0.018073 -0.012085 -0.000000)
 62:   1164.96   0.001767    8.93  0.000473  ( 0.012045 -0.018115  0.000001)
 63:   1187.04   0.000000    0.00  0.000000  ( 0.000000  0.000000 -0.000000)
 64:   1187.08   0.000000    0.00  0.000000  ( 0.000000 -0.000000  0.000000)
 65:   1190.63   0.000000    0.00  0.000000  ( 0.000006  0.000012 -0.000000)
 66:   1219.37   0.000000    0.00  0.000000  ( 0.000024  0.000002  0.000000)
 67:   1242.92   0.000152    0.77  0.000038  ( 0.000124  0.006177 -0.000000)
 68:   1242.98   0.000150    0.76  0.000038  (-0.006142  0.000095 -0.000000)
 69:   1252.95   0.000000    0.00  0.000000  (-0.000000 -0.000000  0.000000)
 70:   1255.43   0.000000    0.00  0.000000  (-0.000000 -0.000000  0.000000)
 71:   1255.44   0.000000    0.00  0.000000  (-0.000000  0.000000  0.000000)
 72:   1263.38   0.000000    0.00  0.000000  ( 0.000000  0.000000  0.000000)
 73:   1345.27   0.004768   24.09  0.001106  ( 0.032756  0.005746  0.000001)
 74:   1345.29   0.004760   24.06  0.001104  ( 0.005770 -0.032726  0.000001)
 75:   1376.78   0.000000    0.00  0.000000  (-0.000000 -0.000000  0.000000)
 76:   1378.09   0.000000    0.00  0.000000  (-0.000041  0.000001  0.000000)
 77:   1428.82   0.000000    0.00  0.000000  ( 0.000001 -0.000001  0.000000)
 78:   1428.84   0.000076    0.39  0.000017  (-0.003896 -0.001222 -0.000000)
 79:   1428.86   0.000000    0.00  0.000000  (-0.000004  0.000006 -0.000000)
 80:   1428.88   0.000077    0.39  0.000017  (-0.001214  0.003905 -0.000000)
 81:   1453.64   0.000000    0.00  0.000000  (-0.000009  0.000040 -0.000000)
 82:   1470.52   0.000000    0.00  0.000000  ( 0.000000  0.000000 -0.000000)
 83:   1470.56   0.000000    0.00  0.000000  (-0.000000 -0.000000  0.000000)
 84:   1488.52   0.000000    0.00  0.000000  (-0.000000 -0.000000  0.000000)
 85:   1488.55   0.000000    0.00  0.000000  ( 0.000000 -0.000000 -0.000000)
 86:   1522.76   0.000000    0.00  0.000000  ( 0.000022 -0.000001  0.000000)
 87:   1540.08   0.000472    2.38  0.000096  (-0.005258  0.008245 -0.000000)
 88:   1540.10   0.000473    2.39  0.000096  (-0.008270 -0.005237 -0.000000)
 89:   1579.51   0.000000    0.00  0.000000  (-0.000000 -0.000000  0.000000)
 90:   1588.33   0.000000    0.00  0.000000  ( 0.000004 -0.000016  0.000000)
 91:   1644.65   0.000000    0.00  0.000000  ( 0.000000  0.000000 -0.000000)
 92:   1657.65   0.000000    0.00  0.000000  (-0.000000  0.000000  0.000000)
 93:   1657.68   0.000000    0.00  0.000000  ( 0.000001  0.000001 -0.000000)
 94:   1658.87   0.002341   11.83  0.000440  (-0.013926 -0.015698 -0.000000)
 95:   1658.90   0.002342   11.84  0.000441  (-0.015737  0.013889 -0.000001)
 96:   3154.13   0.000000    0.00  0.000000  ( 0.000001  0.000000 -0.000000)
 97:   3154.97   0.001740    8.80  0.000172  (-0.013051 -0.001356 -0.000001)
 98:   3155.23   0.001775    8.97  0.000176  ( 0.001322 -0.013185  0.000000)
 99:   3156.95   0.000000    0.00  0.000000  (-0.000001 -0.000001 -0.000000)
100:   3157.18   0.000000    0.00  0.000000  (-0.000000 -0.000000 -0.000000)
101:   3158.14   0.000002    0.01  0.000000  ( 0.000142  0.000370  0.000000)
102:   3172.22   0.000054    0.27  0.000005  (-0.002257  0.000482 -0.000000)
103:   3173.41   0.000000    0.00  0.000000  ( 0.000001 -0.000003  0.000000)
104:   3173.60   0.000000    0.00  0.000000  ( 0.000001 -0.000001  0.000000)
105:   3175.48   0.028809  145.59  0.002831  (-0.006452  0.052816 -0.000002)
106:   3175.71   0.028652  144.79  0.002815  (-0.052663 -0.006487 -0.000002)
107:   3177.21   0.000000    0.00  0.000000  (-0.000004  0.000003 -0.000000)

--------------------------
THERMOCHEMISTRY AT 298.15K
--------------------------

Temperature         ... 298.15 K
Pressure            ... 1.00 atm
Total Mass          ... 300.36 AMU

Throughout the following assumptions are being made:
  (1) The electronic state is orbitally nondegenerate
  (2) There are no thermally accessible electronically excited states
  (3) Hindered rotations indicated by low frequency modes are not
      treated as such but are treated as vibrations and this may
      cause some error
  (4) All equations used are the standard statistical mechanics
      equations for an ideal gas
  (5) All vibrations are strictly harmonic

freq.      87.91  E(vib)   ...       0.48
freq.      87.94  E(vib)   ...       0.48
freq.     124.40  E(vib)   ...       0.43
freq.     164.51  E(vib)   ...       0.39
freq.     225.63  E(vib)   ...       0.33
freq.     294.93  E(vib)   ...       0.27
freq.     294.97  E(vib)   ...       0.27
freq.     300.73  E(vib)   ...       0.26
freq.     300.82  E(vib)   ...       0.26
freq.     371.96  E(vib)   ...       0.21
freq.     372.00  E(vib)   ...       0.21
freq.     387.16  E(vib)   ...       0.20
freq.     387.20  E(vib)   ...       0.20
freq.     454.95  E(vib)   ...       0.16
freq.     455.06  E(vib)   ...       0.16
freq.     483.61  E(vib)   ...       0.15
freq.     492.23  E(vib)   ...       0.14
freq.     500.95  E(vib)   ...       0.14
freq.     501.02  E(vib)   ...       0.14
freq.     528.70  E(vib)   ...       0.13
freq.     551.02  E(vib)   ...       0.12
freq.     551.10  E(vib)   ...       0.12
freq.     561.70  E(vib)   ...       0.11
freq.     568.43  E(vib)   ...       0.11
freq.     619.27  E(vib)   ...       0.09
freq.     649.47  E(vib)   ...       0.08
freq.     668.62  E(vib)   ...       0.08
freq.     668.66  E(vib)   ...       0.08
freq.     683.57  E(vib)   ...       0.07
freq.     694.07  E(vib)   ...       0.07
freq.     694.09  E(vib)   ...       0.07
freq.     764.72  E(vib)   ...       0.06
freq.     769.87  E(vib)   ...       0.05
freq.     769.91  E(vib)   ...       0.05
freq.     786.64  E(vib)   ...       0.05
freq.     789.61  E(vib)   ...       0.05
freq.     789.67  E(vib)   ...       0.05
freq.     811.32  E(vib)   ...       0.05
freq.     811.33  E(vib)   ...       0.05
freq.     830.45  E(vib)   ...       0.04
freq.     830.48  E(vib)   ...       0.04
freq.     845.24  E(vib)   ...       0.04
freq.     845.28  E(vib)   ...       0.04
freq.     865.78  E(vib)   ...       0.04
freq.     935.99  E(vib)   ...       0.03
freq.     942.67  E(vib)   ...       0.03
freq.     942.70  E(vib)   ...       0.03
freq.     946.37  E(vib)   ...       0.03
freq.     953.57  E(vib)   ...       0.03
freq.     953.60  E(vib)   ...       0.03
freq.     962.32  E(vib)   ...       0.03
freq.    1015.74  E(vib)   ...       0.02
freq.    1015.81  E(vib)   ...       0.02
freq.    1055.17  E(vib)   ...       0.02
freq.    1163.32  E(vib)   ...       0.01
freq.    1164.88  E(vib)   ...       0.01
freq.    1164.96  E(vib)   ...       0.01
freq.    1187.04  E(vib)   ...       0.01
freq.    1187.08  E(vib)   ...       0.01
freq.    1190.63  E(vib)   ...       0.01
freq.    1219.37  E(vib)   ...       0.01
freq.    1242.92  E(vib)   ...       0.01
freq.    1242.98  E(vib)   ...       0.01
freq.    1252.95  E(vib)   ...       0.01
freq.    1255.43  E(vib)   ...       0.01
freq.    1255.44  E(vib)   ...       0.01
freq.    1263.38  E(vib)   ...       0.01
freq.    1345.27  E(vib)   ...       0.01
freq.    1345.29  E(vib)   ...       0.01
freq.    1376.78  E(vib)   ...       0.01
freq.    1378.09  E(vib)   ...       0.01
freq.    1428.82  E(vib)   ...       0.00
freq.    1428.84  E(vib)   ...       0.00
freq.    1428.86  E(vib)   ...       0.00
freq.    1428.88  E(vib)   ...       0.00
freq.    1453.64  E(vib)   ...       0.00
freq.    1470.52  E(vib)   ...       0.00
freq.    1470.56  E(vib)   ...       0.00
freq.    1488.52  E(vib)   ...       0.00
freq.    1488.55  E(vib)   ...       0.00
freq.    1522.76  E(vib)   ...       0.00
freq.    1540.08  E(vib)   ...       0.00
freq.    1540.10  E(vib)   ...       0.00
freq.    1579.51  E(vib)   ...       0.00
freq.    1588.33  E(vib)   ...       0.00
freq.    1644.65  E(vib)   ...       0.00
freq.    1657.65  E(vib)   ...       0.00
freq.    1657.68  E(vib)   ...       0.00
freq.    1658.87  E(vib)   ...       0.00
freq.    1658.90  E(vib)   ...       0.00
freq.    3154.13  E(vib)   ...       0.00
freq.    3154.97  E(vib)   ...       0.00
freq.    3155.23  E(vib)   ...       0.00
freq.    3156.95  E(vib)   ...       0.00
freq.    3157.18  E(vib)   ...       0.00
freq.    3158.14  E(vib)   ...       0.00
freq.    3172.22  E(vib)   ...       0.00
freq.    3173.41  E(vib)   ...       0.00
freq.    3173.60  E(vib)   ...       0.00
freq.    3175.48  E(vib)   ...       0.00
freq.    3175.71  E(vib)   ...       0.00
freq.    3177.21  E(vib)   ...       0.00

------------
INNER ENERGY
------------

The inner energy is: U= E(el) + E(ZPE) + E(vib) + E(rot) + E(trans)
    E(el)   - is the total energy from the electronic structure calculation
              = E(kin-el) + E(nuc-el) + E(el-el) + E(nuc-nuc)
    E(ZPE)  - the the zero temperature vibrational energy from the frequency calculation
    E(vib)  - the the finite temperature correction to E(ZPE) due to population
              of excited vibrational states
    E(rot)  - is the rotational thermal energy
    E(trans)- is the translational thermal energy

Summary of contributions to the inner energy U:
Electronic energy                ...   -921.60042803 Eh
Zero point energy                ...      0.27865789 Eh     174.86 kcal/mol
Thermal vibrational correction   ...      0.01135379 Eh       7.12 kcal/mol
Thermal rotational correction    ...      0.00141627 Eh       0.89 kcal/mol
Thermal translational correction ...      0.00141627 Eh       0.89 kcal/mol
-----------------------------------------------------------------------
Total thermal energy                   -921.30758380 Eh

Summary of corrections to the electronic energy:
(perhaps to be used in another calculation)
Total thermal correction                  0.01418634 Eh       8.90 kcal/mol
Non-thermal (ZPE) correction              0.27865789 Eh     174.86 kcal/mol
-----------------------------------------------------------------------
Total correction                          0.29284423 Eh     183.76 kcal/mol

--------
ENTHALPY
--------

The enthalpy is H = U + kB*T
                kB is Boltzmann's constant
Total free energy                 ...   -921.30758380 Eh
Thermal Enthalpy correction       ...      0.00094421 Eh       0.59 kcal/mol
-----------------------------------------------------------------------
Total Enthalpy                    ...   -921.30663959 Eh

Rotational constants in cm-1:     0.011153     0.011152     0.005576

                             ****ORCA TERMINATED NORMALLY****
TOTAL RUN TIME: 0 days 1 hours 27 minutes 11 seconds 234 msec
