                         Program Version 5.0.4 -  RELEASE  -
|  1> !M062X def2-tzvp PAL4 TIGHTOPT FREQ
|  2>
|  3> %freq
|  4> Temp 298.15,10,20,50,100,6000,8000,10000
|  5> end
|  6>
|  7> %geom
|  8> maxiter 5000
|  9> end
| 10>
| 11>
| 12> * xyz 0 1
| 13>   C   2.45791983499341     -2.80268931379768     -0.00000793519644
| 14>   C   1.28608761308438     -3.49706883370209     -0.00003643606214
| 15>   C   0.03470547919465     -2.82650100714450     -0.00011895547508
| 16>   C   -1.19909611030651     -3.52926406052669     -0.00014738304165
| 17>   C   -2.38727532547159     -2.86387815648029     -0.00022974228995
| 18>   C   -2.43307513493588     -1.44447575303296     -0.00027036473986
| 19>   C   -3.65942351028343     -0.73056692575933     -0.00034869983218
| 20>   C   -3.68143184744779      0.63183680863156     -0.00038756598292
| 21>   C   -2.47654311552349      1.38171086633990     -0.00035715694906
| 22>   C   -2.47435650264592      2.81046534061019     -0.00039831731937
| 23>   C   -1.28561443050281      3.43802142880253     -0.00036151343355
| 24>   C   -0.02057223287027      2.83388218261706     -0.00029010794623
| 25>   C   1.21086686736911      3.53893902602452     -0.00025402239824
| 26>   C   2.39489324957599      2.86551829309080     -0.00018393811888
| 27>   C   2.43517090494280      1.44582754720977     -0.00014049013964
| 28>   C   3.65975900430544      0.72697243056351     -0.00006992784603
| 29>   C   3.67546036802878     -0.63516446298208     -0.00002698908555
| 30>   C   2.46811813995863     -1.38295180399054     -0.00005240219282
| 31>   C   1.24061543792698     -0.69496199420878     -0.00012711748511
| 32>   C   1.22474219035332      0.72698621586077     -0.00017741356338
| 33>   C   -0.01566516709535      1.42103164152461     -0.00024506128700
| 34>   C   -1.24356348643455      0.69923344199718     -0.00028346088976
| 35>   C   -1.22400277498297     -0.72338676000015     -0.00023734960533
| 36>   C   0.01693487392421     -1.41913103104816     -0.00016297130775
| 37>   H   3.40501735040542     -3.32906588787472      0.00005627444163
| 38>   H   1.29296308352502     -4.58060438188898      0.00000142672494
| 39>   H   -1.17896310310274     -4.61257131284734     -0.00011513591155
| 40>   H   -3.32129405982821     -3.41317602901623     -0.00025227227744
| 41>   H   -4.58586789409211     -1.29266910376159     -0.00037146429946
| 42>   H   -4.62408845924854      1.16575491725399     -0.00044556872067
| 43>   H   -3.41518424261775      3.34878172120577     -0.00045725814046
| 44>   H   1.18854626437870      4.62103847897618     -0.00028959104089
| 45>   H   3.33130215861300      3.41052642430950     -0.00015763965944
| 46>   H   4.58800492413600      1.28586263822177     -0.00004835142171
| 47>   **                         ****END OF INPUT****
 Total Charge           Charge          ....    0
 Multiplicity           Mult            ....    1
 Number of Electrons    NEL             ....  154
FINAL SINGLE POINT ENERGY      -920.367089826238
FINAL SINGLE POINT ENERGY      -920.370370430932
FINAL SINGLE POINT ENERGY      -920.371886132393
FINAL SINGLE POINT ENERGY      -920.371931150268
FINAL SINGLE POINT ENERGY      -920.371943039624
FINAL SINGLE POINT ENERGY      -920.371945013756
FINAL SINGLE POINT ENERGY      -920.371946346707
FINAL SINGLE POINT ENERGY      -920.371947017499
FINAL SINGLE POINT ENERGY      -920.371947821141
FINAL SINGLE POINT ENERGY      -920.371948646335
                    ***********************HURRAY********************

CARTESIAN COORDINATES (ANGSTROEM)
---------------------------------
  C      2.454850   -2.808544   -0.000028
  C      1.280384   -3.496073   -0.000201
  C      0.031981   -2.823869   -0.000263
  C     -1.201049   -3.527670   -0.000195
  C     -2.389469   -2.864558   -0.000109
  C     -2.436565   -1.445269   -0.000121
  C     -3.665326   -0.737087   -0.000081
  C     -3.690712    0.625514   -0.000066
  C     -2.485068    1.370507   -0.000168
  C     -2.480216    2.808592   -0.000790
  C     -1.285628    3.395466   -0.000588
  C     -0.010431    2.848626   -0.000373
  C      1.231072    3.539418    0.000174
  C      2.410978    2.866668    0.000116
  C      2.440072    1.446781   -0.000324
  C      3.684564    0.729910   -0.000347
  C      3.628642   -0.605677    0.000400
  C      2.479513   -1.387372    0.000004
  C      1.230582   -0.682525   -0.000255
  C      1.230746    0.735122   -0.000404
  C     -0.021674    1.425961   -0.000598
  C     -1.246794    0.699910   -0.000329
  C     -1.228617   -0.721942   -0.000249
  C      0.015198   -1.416280   -0.000289
  H      3.402939   -3.328570    0.000080
  H      1.285233   -4.579434   -0.000199
  H     -1.178078   -4.610746   -0.000183
  H     -3.323218   -3.414086   -0.000027
  H     -4.590133   -1.302142   -0.000029
  H     -4.632638    1.160101   -0.000017
  H     -3.424664    3.343417   -0.001833
  H      1.211650    4.619542    0.000362
  H      3.351210    3.404623    0.000341
  H      4.605757    1.305950   -0.000406

 Multiplicity           Mult            ....    1
 Number of Electrons    NEL             ....  154
 Basis Dimension        Dim             ....  804

ORBITAL ENERGIES
----------------

  NO   OCC          E(Eh)            E(eV)
   0   2.0000     -10.582373      -287.9610
   1   2.0000     -10.579181      -287.8742
   2   2.0000     -10.577137      -287.8185
   3   2.0000     -10.574419      -287.7446
   4   2.0000     -10.572033      -287.6796
   5   2.0000     -10.569939      -287.6227
   6   2.0000     -10.568733      -287.5899
   7   2.0000     -10.567512      -287.5566
   8   2.0000     -10.566892      -287.5398
   9   2.0000     -10.566688      -287.5342
  10   2.0000     -10.565489      -287.5016
  11   2.0000     -10.564060      -287.4627
  12   2.0000     -10.563316      -287.4424
  13   2.0000     -10.563038      -287.4349
  14   2.0000     -10.560138      -287.3560
  15   2.0000     -10.558910      -287.3225
  16   2.0000     -10.557677      -287.2890
  17   2.0000     -10.557159      -287.2749
  18   2.0000     -10.556619      -287.2602
  19   2.0000     -10.554830      -287.2115
  20   2.0000     -10.554071      -287.1909
  21   2.0000     -10.554007      -287.1891
  22   2.0000     -10.553492      -287.1751
  23   2.0000     -10.552389      -287.1451
  24   2.0000      -1.030844       -28.0507
  25   2.0000      -0.991391       -26.9771
  26   2.0000      -0.990054       -26.9407
  27   2.0000      -0.939697       -25.5705
  28   2.0000      -0.937896       -25.5214
  29   2.0000      -0.919286       -25.0150
  30   2.0000      -0.886775       -24.1304
  31   2.0000      -0.869674       -23.6650
  32   2.0000      -0.851718       -23.1764
  33   2.0000      -0.848973       -23.1017
  34   2.0000      -0.817718       -22.2512
  35   2.0000      -0.813862       -22.1463
  36   2.0000      -0.734239       -19.9797
  37   2.0000      -0.731553       -19.9066
  38   2.0000      -0.727712       -19.8021
  39   2.0000      -0.718870       -19.5614
  40   2.0000      -0.714962       -19.4551
  41   2.0000      -0.652742       -17.7620
  42   2.0000      -0.638715       -17.3803
  43   2.0000      -0.628848       -17.1118
  44   2.0000      -0.614567       -16.7232
  45   2.0000      -0.608171       -16.5492
  46   2.0000      -0.597585       -16.2611
  47   2.0000      -0.555550       -15.1173
  48   2.0000      -0.552948       -15.0465
  49   2.0000      -0.542547       -14.7635
  50   2.0000      -0.539578       -14.6827
  51   2.0000      -0.528686       -14.3863
  52   2.0000      -0.519589       -14.1387
  53   2.0000      -0.511988       -13.9319
  54   2.0000      -0.500886       -13.6298
  55   2.0000      -0.498151       -13.5554
  56   2.0000      -0.494322       -13.4512
  57   2.0000      -0.483034       -13.1440
  58   2.0000      -0.472910       -12.8685
  59   2.0000      -0.472850       -12.8669
  60   2.0000      -0.471009       -12.8168
  61   2.0000      -0.452841       -12.3224
  62   2.0000      -0.447070       -12.1654
  63   2.0000      -0.435068       -11.8388
  64   2.0000      -0.433853       -11.8057
  65   2.0000      -0.410663       -11.1747
  66   2.0000      -0.409256       -11.1364
  67   2.0000      -0.395691       -10.7673
  68   2.0000      -0.391484       -10.6528
  69   2.0000      -0.391341       -10.6489
  70   2.0000      -0.341399        -9.2899
  71   2.0000      -0.334060        -9.0902
  72   2.0000      -0.318188        -8.6583
  73   2.0000      -0.317432        -8.6378
  74   2.0000      -0.260187        -7.0801
  75   2.0000      -0.259599        -7.0640
  76   2.0000      -0.201504        -5.4832
  77   0.0000      -0.152075        -4.1382
  78   0.0000      -0.045829        -1.2471
  79   0.0000      -0.041861        -1.1391
  80   0.0000      -0.003025        -0.0823
  81   0.0000       0.001201         0.0327

MULLIKEN ATOMIC CHARGES
-----------------------
   0 C :   -0.219038
   1 C :   -0.167886
   2 C :    0.091284
   3 C :   -0.183459
   4 C :   -0.182637
   5 C :    0.095419
   6 C :   -0.182502
   7 C :   -0.173153
   8 C :    0.147995
   9 C :   -0.311593
  10 C :    0.031552
  11 C :    0.056867
  12 C :   -0.245145
  13 C :   -0.146565
  14 C :    0.141601
  15 C :   -0.315892
  16 C :   -0.042503
  17 C :    0.069211
  18 C :    0.099827
  19 C :    0.008121
  20 C :    0.079939
  21 C :   -0.071329
  22 C :    0.000998
  23 C :    0.014002
  24 H :    0.146475
  25 H :    0.135642
  26 H :    0.136034
  27 H :    0.135709
  28 H :    0.136528
  29 H :    0.138062
  30 H :    0.149770
  31 H :    0.145576
  32 H :    0.139188
  33 H :    0.141904
Sum of atomic charges:   -0.0000000

LOEWDIN ATOMIC CHARGES
----------------------
   0 C :   -0.089775
   1 C :   -0.098412
   2 C :   -0.091674
   3 C :   -0.098221
   4 C :   -0.097541
   5 C :   -0.094243
   6 C :   -0.094194
   7 C :   -0.101326
   8 C :   -0.080805
   9 C :   -0.122050
  10 C :    0.055653
  11 C :   -0.117001
  12 C :   -0.091332
  13 C :   -0.095153
  14 C :   -0.079619
  15 C :   -0.131999
  16 C :    0.009339
  17 C :   -0.111226
  18 C :    0.008913
  19 C :   -0.011528
  20 C :    0.015229
  21 C :   -0.008490
  22 C :   -0.002011
  23 C :   -0.005826
  24 H :    0.154138
  25 H :    0.151638
  26 H :    0.151046
  27 H :    0.150886
  28 H :    0.151276
  29 H :    0.151287
  30 H :    0.159350
  31 H :    0.155385
  32 H :    0.152541
  33 H :    0.155745

  Mayer bond orders larger than 0.100000
B(  0-C ,  1-C ) :   1.5999 B(  0-C , 17-C ) :   1.2386 B(  0-C , 24-H ) :   0.9434
B(  1-C ,  2-C ) :   1.2342 B(  1-C , 25-H ) :   0.9358 B(  2-C ,  3-C ) :   1.2439
B(  2-C , 23-C ) :   1.3142 B(  3-C ,  4-C ) :   1.6446 B(  3-C , 26-H ) :   0.9285
B(  4-C ,  5-C ) :   1.2365 B(  4-C , 27-H ) :   0.9341 B(  5-C ,  6-C ) :   1.2467
B(  5-C , 22-C ) :   1.3015 B(  6-C ,  7-C ) :   1.6308 B(  6-C , 28-H ) :   0.9313
B(  7-C ,  8-C ) :   1.2524 B(  7-C , 29-H ) :   0.9333 B(  8-C ,  9-C ) :   1.0721
B(  8-C , 21-C ) :   1.2994 B(  9-C , 10-C ) :   1.7681 B(  9-C , 30-H ) :   0.9360
B( 10-C , 11-C ) :   1.1869 B( 10-C , 16-C ) :   0.6133 B( 11-C , 12-C ) :   1.2348
B( 11-C , 20-C ) :   1.2836 B( 12-C , 13-C ) :   1.6136 B( 12-C , 31-H ) :   0.9487
B( 13-C , 14-C ) :   1.2220 B( 13-C , 32-H ) :   0.9354 B( 14-C , 15-C ) :   1.0842
B( 14-C , 19-C ) :   1.3350 B( 15-C , 16-C ) :   1.7828 B( 15-C , 33-H ) :   0.9411
B( 16-C , 17-C ) :   1.1756 B( 17-C , 18-C ) :   1.2751 B( 18-C , 19-C ) :   1.1432
B( 18-C , 23-C ) :   1.1873 B( 19-C , 20-C ) :   1.1418 B( 20-C , 21-C ) :   1.1821
B( 21-C , 22-C ) :   1.1750 B( 22-C , 23-C ) :   1.1259

FINAL SINGLE POINT ENERGY      -920.371948990354

DIPOLE MOMENT
-------------
                                X             Y             Z
Electronic contribution:      2.16785       2.92341      -0.00101
Nuclear contribution   :     -2.97540      -3.07403       0.00019
                        -----------------------------------------
Total Dipole Moment    :     -0.80755      -0.15063      -0.00083
                        -----------------------------------------
Magnitude (a.u.)       :      0.82148
Magnitude (Debye)      :      2.08802

VIBRATIONAL FREQUENCIES
-----------------------

Scaling factor for frequencies =  1.000000000  (already applied!)

   0:         0.00 cm**-1
   1:         0.00 cm**-1
   2:         0.00 cm**-1
   3:         0.00 cm**-1
   4:         0.00 cm**-1
   5:         0.00 cm**-1
   6:      -375.58 cm**-1 ***imaginary mode***
   7:        28.64 cm**-1
   8:        86.09 cm**-1
   9:        93.22 cm**-1
  10:       135.77 cm**-1
  11:       200.10 cm**-1
  12:       247.20 cm**-1
  13:       290.80 cm**-1
  14:       298.19 cm**-1
  15:       303.59 cm**-1
  16:       367.50 cm**-1
  17:       371.23 cm**-1
  18:       383.96 cm**-1
  19:       387.96 cm**-1
  20:       426.27 cm**-1
  21:       438.66 cm**-1
  22:       464.65 cm**-1
  23:       473.52 cm**-1
  24:       492.90 cm**-1
  25:       495.42 cm**-1
  26:       503.72 cm**-1
  27:       520.22 cm**-1
  28:       560.27 cm**-1
  29:       570.64 cm**-1
  30:       582.96 cm**-1
  31:       601.21 cm**-1
  32:       640.15 cm**-1
  33:       658.84 cm**-1
  34:       663.11 cm**-1
  35:       680.75 cm**-1
  36:       688.80 cm**-1
  37:       730.90 cm**-1
  38:       774.56 cm**-1
  39:       775.84 cm**-1
  40:       780.91 cm**-1
  41:       796.27 cm**-1
  42:       826.34 cm**-1
  43:       830.55 cm**-1
  44:       835.19 cm**-1
  45:       844.11 cm**-1
  46:       869.73 cm**-1
  47:       881.90 cm**-1
  48:       884.16 cm**-1
  49:       924.22 cm**-1
  50:       944.77 cm**-1
  51:       979.18 cm**-1
  52:       983.49 cm**-1
  53:       990.49 cm**-1
  54:       992.75 cm**-1
  55:      1000.53 cm**-1
  56:      1011.50 cm**-1
  57:      1052.43 cm**-1
  58:      1128.39 cm**-1
  59:      1138.65 cm**-1
  60:      1164.26 cm**-1
  61:      1174.70 cm**-1
  62:      1190.90 cm**-1
  63:      1196.29 cm**-1
  64:      1211.53 cm**-1
  65:      1235.74 cm**-1
  66:      1238.22 cm**-1
  67:      1248.96 cm**-1
  68:      1253.20 cm**-1
  69:      1282.15 cm**-1
  70:      1302.20 cm**-1
  71:      1328.75 cm**-1
  72:      1365.75 cm**-1
  73:      1375.89 cm**-1
  74:      1387.99 cm**-1
  75:      1403.98 cm**-1
  76:      1423.93 cm**-1
  77:      1441.61 cm**-1
  78:      1445.52 cm**-1
  79:      1470.00 cm**-1
  80:      1478.99 cm**-1
  81:      1483.97 cm**-1
  82:      1529.55 cm**-1
  83:      1534.47 cm**-1
  84:      1540.08 cm**-1
  85:      1569.89 cm**-1
  86:      1600.10 cm**-1
  87:      1638.38 cm**-1
  88:      1671.86 cm**-1
  89:      1677.31 cm**-1
  90:      1684.61 cm**-1
  91:      1694.47 cm**-1
  92:      3164.88 cm**-1
  93:      3178.42 cm**-1
  94:      3203.81 cm**-1
  95:      3205.04 cm**-1
  96:      3210.55 cm**-1
  97:      3212.32 cm**-1
  98:      3221.10 cm**-1
  99:      3222.04 cm**-1
 100:      3238.94 cm**-1
 101:      3246.64 cm**-1

IR SPECTRUM
-----------

 Mode   freq       eps      Int      T**2         TX        TY        TZ
       cm**-1   L/(mol*cm) km/mol    a.u.
----------------------------------------------------------------------------
  7:     28.64   0.000670    3.39  0.007303  ( 0.002291 -0.001241 -0.085421)
  8:     86.09   0.000064    0.32  0.000231  (-0.000093 -0.000011 -0.015186)
  9:     93.22   0.000091    0.46  0.000306  ( 0.000129 -0.000174 -0.017482)
 10:    135.77   0.000395    2.00  0.000908  ( 0.000496 -0.000256  0.030125)
 11:    200.10   0.000519    2.62  0.000809  ( 0.001274 -0.000751  0.028409)
 12:    247.20   0.000000    0.00  0.000000  ( 0.000277 -0.000336  0.000251)
 13:    290.80   0.372038  1880.13  0.399237  ( 0.490399 -0.398429  0.000115)
 14:    298.19   0.000053    0.27  0.000055  (-0.001347  0.001004 -0.007233)
 15:    303.59   0.000014    0.07  0.000014  (-0.000209  0.000327  0.003709)
 16:    367.50   0.003130   15.82  0.002658  ( 0.044111 -0.026682 -0.000708)
 17:    371.23   0.003060   15.46  0.002572  (-0.001644  0.000584 -0.050688)
 18:    383.96   0.000077    0.39  0.000063  (-0.003179 -0.007249 -0.000196)
 19:    387.96   0.007267   36.73  0.005846  ( 0.069153 -0.032611 -0.000110)
 20:    426.27   0.000067    0.34  0.000049  ( 0.000459 -0.000573  0.006988)
 21:    438.66   0.215292  1088.00  0.153161  (-0.303298  0.247329  0.000086)
 22:    464.65   0.000014    0.07  0.000009  ( 0.000633 -0.000391  0.002989)
 23:    473.52   0.006984   35.30  0.004603  (-0.055539  0.038964  0.000016)
 24:    492.90   0.000351    1.78  0.000222  (-0.000613  0.000367 -0.014899)
 25:    495.42   0.001385    7.00  0.000872  ( 0.024932 -0.015833 -0.000135)
 26:    503.72   0.000065    0.33  0.000040  (-0.005962 -0.002140  0.000031)
 27:    520.22   0.119576  604.29  0.071730  ( 0.204980 -0.172375 -0.000039)
 28:    560.27   0.000187    0.95  0.000104  ( 0.000429 -0.000465  0.010188)
 29:    570.64   0.000265    1.34  0.000145  ( 0.012029  0.000608  0.000018)
 30:    582.96   0.003068   15.51  0.001643  ( 0.000343 -0.000310 -0.040526)
 31:    601.21   0.000047    0.24  0.000024  (-0.000115  0.000125 -0.004947)
 32:    640.15   0.000152    0.77  0.000074  ( 0.007888  0.003454 -0.000001)
 33:    658.84   0.000172    0.87  0.000082  (-0.000145  0.000029 -0.009036)
 34:    663.11   0.000447    2.26  0.000210  (-0.000122  0.000157 -0.014497)
 35:    680.75   0.000058    0.29  0.000026  ( 0.004263 -0.002878 -0.000006)
 36:    688.80   0.000032    0.16  0.000014  (-0.000519 -0.003762 -0.000001)
 37:    730.90   0.029487  149.02  0.012590  (-0.080276  0.078395 -0.000057)
 38:    774.56   0.000253    1.28  0.000102  ( 0.000540 -0.000209  0.010073)
 39:    775.84   0.001905    9.62  0.000766  (-0.023421  0.014746  0.000205)
 40:    780.91   0.000457    2.31  0.000183  ( 0.000150 -0.000165  0.013512)
 41:    796.27   0.000213    1.08  0.000084  (-0.000094  0.000068 -0.009142)
 42:    826.34   0.002770   14.00  0.001046  (-0.025993  0.019246  0.000025)
 43:    830.55   0.000079    0.40  0.000030  (-0.000057 -0.000031 -0.005442)
 44:    835.19   0.000295    1.49  0.000110  (-0.009078  0.005284 -0.000006)
 45:    844.11   0.003718   18.79  0.001374  (-0.000071 -0.000039 -0.037073)
 46:    869.73   0.000085    0.43  0.000031  (-0.000013 -0.000020 -0.005536)
 47:    881.90   0.016997   85.90  0.006015  (-0.000072 -0.000073 -0.077553)
 48:    884.16   0.004657   23.53  0.001644  (-0.000005 -0.000009 -0.040542)
 49:    924.22   0.000039    0.20  0.000013  (-0.001857 -0.003135  0.000002)
 50:    944.77   0.000007    0.03  0.000002  (-0.000051 -0.000173  0.001455)
 51:    979.18   0.075017  379.11  0.023908  (-0.129585  0.084354  0.000001)
 52:    983.49   0.000003    0.01  0.000001  (-0.000054  0.000040 -0.000936)
 53:    990.49   0.000001    0.01  0.000000  (-0.000032  0.000105 -0.000652)
 54:    992.75   0.000069    0.35  0.000022  ( 0.000026 -0.000056  0.004648)
 55:   1000.53   0.000031    0.16  0.000010  (-0.000011 -0.000093  0.003125)
 56:   1011.50   0.000284    1.43  0.000088  (-0.004557 -0.008176 -0.000005)
 57:   1052.43   0.000097    0.49  0.000029  ( 0.004213 -0.003305  0.000026)
 58:   1128.39   0.017476   88.32  0.004833  ( 0.046715 -0.051486  0.000026)
 59:   1138.65   0.038457  194.35  0.010540  (-0.074940  0.070169  0.000016)
 60:   1164.26   0.001908    9.64  0.000511  ( 0.019839 -0.010855  0.000017)
 61:   1174.70   0.002012   10.17  0.000534  (-0.020978  0.009717  0.000006)
 62:   1190.90   0.001983   10.02  0.000520  ( 0.018516 -0.013298 -0.000010)
 63:   1196.29   0.001431    7.23  0.000373  (-0.015290  0.011810  0.000010)
 64:   1211.53   0.000023    0.12  0.000006  ( 0.002123 -0.001235 -0.000005)
 65:   1235.74   0.006720   33.96  0.001697  ( 0.034640 -0.022298 -0.000004)
 66:   1238.22   0.002297   11.61  0.000579  ( 0.018707 -0.015128 -0.000000)
 67:   1248.96   0.010052   50.80  0.002511  ( 0.045108 -0.021835  0.000008)
 68:   1253.20   0.001174    5.93  0.000292  (-0.014024  0.009780 -0.000002)
 69:   1282.15   0.068252  344.92  0.016612  ( 0.118325 -0.051097  0.000013)
 70:   1302.20   0.002154   10.88  0.000516  (-0.021098 -0.008424 -0.000002)
 71:   1328.75   0.025275  127.73  0.005936  (-0.069519  0.033212  0.000002)
 72:   1365.75   0.004118   20.81  0.000941  ( 0.025809 -0.016581 -0.000034)
 73:   1375.89   0.005899   29.81  0.001338  (-0.028756  0.022608 -0.000025)
 74:   1387.99   0.038176  192.92  0.008583  ( 0.071923 -0.058396  0.000049)
 75:   1403.98   0.000228    1.15  0.000051  ( 0.002568 -0.006643  0.000013)
 76:   1423.93   0.000293    1.48  0.000064  (-0.007792  0.001863 -0.000023)
 77:   1441.61   0.003045   15.39  0.000659  ( 0.022769 -0.011863  0.000002)
 78:   1445.52   0.002740   13.84  0.000591  (-0.017370  0.017021  0.000004)
 79:   1470.00   0.002665   13.47  0.000566  (-0.020688  0.011732  0.000004)
 80:   1478.99   0.000067    0.34  0.000014  (-0.001059  0.003596 -0.000047)
 81:   1483.97   0.001055    5.33  0.000222  ( 0.012861 -0.007511  0.000007)
 82:   1529.55   0.000712    3.60  0.000145  ( 0.011486  0.003649 -0.000044)
 83:   1534.47   0.000927    4.69  0.000189  (-0.009316 -0.010090 -0.000029)
 84:   1540.08   0.002335   11.80  0.000473  (-0.016641  0.014008  0.000003)
 85:   1569.89   0.001138    5.75  0.000226  (-0.003666  0.014587 -0.000020)
 86:   1600.10   0.000006    0.03  0.000001  ( 0.000658 -0.000843 -0.000029)
 87:   1638.38   0.022579  114.10  0.004301  (-0.054769  0.036068 -0.000021)
 88:   1671.86   0.013535   68.40  0.002526  (-0.043657  0.024909  0.000031)
 89:   1677.31   0.005954   30.09  0.001108  ( 0.030059 -0.014292 -0.000039)
 90:   1684.61   0.001897    9.59  0.000351  ( 0.008226  0.016845 -0.000014)
 91:   1694.47   0.001635    8.26  0.000301  (-0.013419  0.010999  0.000032)
 92:   3164.88   0.005477   27.68  0.000540  (-0.020893  0.010176  0.000002)
 93:   3178.42   0.004428   22.38  0.000435  (-0.017685  0.011047 -0.000001)
 94:   3203.81   0.000197    1.00  0.000019  ( 0.000371 -0.004368 -0.000001)
 95:   3205.04   0.000224    1.13  0.000022  (-0.004619  0.000688 -0.000001)
 96:   3210.55   0.000394    1.99  0.000038  ( 0.002938 -0.005444 -0.000000)
 97:   3212.32   0.001001    5.06  0.000097  ( 0.008865  0.004321 -0.000001)
 98:   3221.10   0.001602    8.10  0.000155  ( 0.000676  0.012441  0.000000)
 99:   3222.04   0.003793   19.17  0.000367  (-0.019123 -0.001301 -0.000000)
100:   3238.94   0.001387    7.01  0.000134  (-0.005450  0.010194 -0.000002)
101:   3246.64   0.000136    0.69  0.000013  ( 0.002308  0.002782  0.000002)

--------------------------
THERMOCHEMISTRY AT 10000.00K
--------------------------

Temperature         ... 10000.00 K
Pressure            ... 1.00 atm
Total Mass          ... 298.34 AMU

Throughout the following assumptions are being made:
  (1) The electronic state is orbitally nondegenerate
  (2) There are no thermally accessible electronically excited states
  (3) Hindered rotations indicated by low frequency modes are not
      treated as such but are treated as vibrations and this may
      cause some error
  (4) All equations used are the standard statistical mechanics
      equations for an ideal gas
  (5) All vibrations are strictly harmonic

freq.      28.64  E(vib)   ...      19.83
freq.      86.09  E(vib)   ...      19.75
freq.      93.22  E(vib)   ...      19.74
freq.     135.77  E(vib)   ...      19.68
freq.     200.10  E(vib)   ...      19.59
freq.     247.20  E(vib)   ...      19.52
freq.     290.80  E(vib)   ...      19.46
freq.     298.19  E(vib)   ...      19.45
freq.     303.59  E(vib)   ...      19.44
freq.     367.50  E(vib)   ...      19.35
freq.     371.23  E(vib)   ...      19.35
freq.     383.96  E(vib)   ...      19.33
freq.     387.96  E(vib)   ...      19.32
freq.     426.27  E(vib)   ...      19.27
freq.     438.66  E(vib)   ...      19.25
freq.     464.65  E(vib)   ...      19.22
freq.     473.52  E(vib)   ...      19.20
freq.     492.90  E(vib)   ...      19.18
freq.     495.42  E(vib)   ...      19.17
freq.     503.72  E(vib)   ...      19.16
freq.     520.22  E(vib)   ...      19.14
freq.     560.27  E(vib)   ...      19.08
freq.     570.64  E(vib)   ...      19.07
freq.     582.96  E(vib)   ...      19.05
freq.     601.21  E(vib)   ...      19.03
freq.     640.15  E(vib)   ...      18.97
freq.     658.84  E(vib)   ...      18.95
freq.     663.11  E(vib)   ...      18.94
freq.     680.75  E(vib)   ...      18.92
freq.     688.80  E(vib)   ...      18.90
freq.     730.90  E(vib)   ...      18.85
freq.     774.56  E(vib)   ...      18.79
freq.     775.84  E(vib)   ...      18.78
freq.     780.91  E(vib)   ...      18.78
freq.     796.27  E(vib)   ...      18.76
freq.     826.34  E(vib)   ...      18.71
freq.     830.55  E(vib)   ...      18.71
freq.     835.19  E(vib)   ...      18.70
freq.     844.11  E(vib)   ...      18.69
freq.     869.73  E(vib)   ...      18.66
freq.     881.90  E(vib)   ...      18.64
freq.     884.16  E(vib)   ...      18.64
freq.     924.22  E(vib)   ...      18.58
freq.     944.77  E(vib)   ...      18.55
freq.     979.18  E(vib)   ...      18.51
freq.     983.49  E(vib)   ...      18.50
freq.     990.49  E(vib)   ...      18.49
freq.     992.75  E(vib)   ...      18.49
freq.    1000.53  E(vib)   ...      18.48
freq.    1011.50  E(vib)   ...      18.46
freq.    1052.43  E(vib)   ...      18.41
freq.    1128.39  E(vib)   ...      18.30
freq.    1138.65  E(vib)   ...      18.29
freq.    1164.26  E(vib)   ...      18.25
freq.    1174.70  E(vib)   ...      18.24
freq.    1190.90  E(vib)   ...      18.22
freq.    1196.29  E(vib)   ...      18.21
freq.    1211.53  E(vib)   ...      18.19
freq.    1235.74  E(vib)   ...      18.16
freq.    1238.22  E(vib)   ...      18.15
freq.    1248.96  E(vib)   ...      18.14
freq.    1253.20  E(vib)   ...      18.13
freq.    1282.15  E(vib)   ...      18.10
freq.    1302.20  E(vib)   ...      18.07
freq.    1328.75  E(vib)   ...      18.03
freq.    1365.75  E(vib)   ...      17.98
freq.    1375.89  E(vib)   ...      17.97
freq.    1387.99  E(vib)   ...      17.95
freq.    1403.98  E(vib)   ...      17.93
freq.    1423.93  E(vib)   ...      17.91
freq.    1441.61  E(vib)   ...      17.88
freq.    1445.52  E(vib)   ...      17.88
freq.    1470.00  E(vib)   ...      17.85
freq.    1478.99  E(vib)   ...      17.83
freq.    1483.97  E(vib)   ...      17.83
freq.    1529.55  E(vib)   ...      17.77
freq.    1534.47  E(vib)   ...      17.76
freq.    1540.08  E(vib)   ...      17.75
freq.    1569.89  E(vib)   ...      17.71
freq.    1600.10  E(vib)   ...      17.67
freq.    1638.38  E(vib)   ...      17.62
freq.    1671.86  E(vib)   ...      17.58
freq.    1677.31  E(vib)   ...      17.57
freq.    1684.61  E(vib)   ...      17.56
freq.    1694.47  E(vib)   ...      17.55
freq.    3164.88  E(vib)   ...      15.69
freq.    3178.42  E(vib)   ...      15.67
freq.    3203.81  E(vib)   ...      15.64
freq.    3205.04  E(vib)   ...      15.64
freq.    3210.55  E(vib)   ...      15.63
freq.    3212.32  E(vib)   ...      15.63
freq.    3221.10  E(vib)   ...      15.62
freq.    3222.04  E(vib)   ...      15.62
freq.    3238.94  E(vib)   ...      15.60
freq.    3246.64  E(vib)   ...      15.59

------------
INNER ENERGY
------------

The inner energy is: U= E(el) + E(ZPE) + E(vib) + E(rot) + E(trans)
    E(el)   - is the total energy from the electronic structure calculation
              = E(kin-el) + E(nuc-el) + E(el-el) + E(nuc-nuc)
    E(ZPE)  - the the zero temperature vibrational energy from the frequency calculation
    E(vib)  - the the finite temperature correction to E(ZPE) due to population
              of excited vibrational states
    E(rot)  - is the rotational thermal energy
    E(trans)- is the translational thermal energy

Summary of contributions to the inner energy U:
Electronic energy                ...   -920.37194899 Eh
Zero point energy                ...      0.25283609 Eh     158.66 kcal/mol
Thermal vibrational correction   ...      2.76627026 Eh    1735.86 kcal/mol
Thermal rotational correction    ...      0.04750198 Eh      29.81 kcal/mol
Thermal translational correction ...      0.04750198 Eh      29.81 kcal/mol
-----------------------------------------------------------------------
Total thermal energy                   -917.25783869 Eh

Summary of corrections to the electronic energy:
(perhaps to be used in another calculation)
Total thermal correction                  2.86127421 Eh    1795.47 kcal/mol
Non-thermal (ZPE) correction              0.25283609 Eh     158.66 kcal/mol
-----------------------------------------------------------------------
Total correction                          3.11411030 Eh    1954.13 kcal/mol

--------
ENTHALPY
--------

The enthalpy is H = U + kB*T
                kB is Boltzmann's constant
Total free energy                 ...   -917.25783869 Eh
Thermal Enthalpy correction       ...      0.03166893 Eh      19.87 kcal/mol
-----------------------------------------------------------------------
Total Enthalpy                    ...   -917.22616976 Eh

Note: Only C1 symmetry has been detected, increase convergence thresholds
      if your molecule has a higher symmetry. Symmetry factor of 1.0 is
      used for the rotational entropy correction.

Rotational constants in cm-1:     0.011571     0.011250     0.005704

                             ****ORCA TERMINATED NORMALLY****
TOTAL RUN TIME: 0 days 7 hours 29 minutes 35 seconds 102 msec
