                         Program Version 5.0.4 -  RELEASE  -
|  1> !b3lyp 6-311+g** d4
|  2>
|  3> %maxcore 5000
|  4> %pal
|  5> nprocs 8
|  6> end
|  7>
|  8> %tddft
|  9>   nroots 1000
| 10>   end
| 11>
| 12> * xyz 0 1
| 13>   C   2.72922398785092     -3.22717713924447      0.00420546946384
| 14>   C   1.53210761563431     -3.94899538833643      0.00346722574993
| 15>   C   0.43898813540805     -3.06545854993308      0.00435658727036
| 16>   C   -0.91420638238416     -3.47357975340582      0.00392314116028
| 17>   C   -2.08417794066505     -2.74792574710615      0.00463210074083
| 18>   C   -2.21589519247820     -1.33864847605241      0.00606823517449
| 19>   C   -3.42721203243697     -0.58489909137974      0.00682693530613
| 20>   C   -3.63269154293823      0.63256704043859      0.00808189313615
| 21>   C   -2.64963504567259      1.66337504713965      0.00914755895192
| 22>   C   -2.60902054976720      3.08113772522007      0.01059910703984
| 23>   C   -1.39750418959825      3.76754641069003      0.01128834149242
| 24>   C   -0.14169042702587      3.09312227699900      0.01059754915000
| 25>   C   1.18986175680845      3.61715126130430      0.01113371642785
| 26>   C   2.27236431726196      2.76760061162233      0.01028078242121
| 27>   C   2.17925408293259      1.32531307224632      0.00881779195898
| 28>   C   3.36273210892976      0.53033162865908      0.00803779959690
| 29>   C   3.45747913777517     -0.83907146516157      0.00665290062583
| 30>   C   2.46030138205757     -1.84707582241694      0.00560904177456
| 31>   C   0.30692826681385     -0.54207006945352      0.00690771354484
| 32>   C   -1.40822697751519      0.99327893784120      0.00846358545535
| 33>   C   -1.14991578657254     -0.39475297024606      0.00704481933758
| 34>   C   1.00653862888310     -1.71429406306906      0.00573519067327
| 35>   H   3.72240372880084     -3.65644717963206      0.00377310493039
| 36>   H   1.44695515311278     -5.02752669524466      0.00236714694579
| 37>   H   -1.04206600850987     -4.55351841463449      0.00282383072397
| 38>   H   -3.01185384471389     -3.30804831923796      0.00404488173914
| 39>   H   -3.53627683570670      3.64154266474936      0.01118264966946
| 40>   H   -1.41512387030060      4.85229504187488      0.01239722813246
| 41>   H   1.35375681848194      4.68967957230395      0.01222068283606
| 42>   H   3.26897425205786      3.19653401033664      0.01072518177087
| 43>   H   4.29968783147795      1.07875815282690      0.00860994871505
| 44>   H   4.47137229465145     -1.23278096368335      0.00627086723544
| 45>   C   0.88032034631760      0.80771433216342      0.00827609566335
| 46>   C   -0.19832321897084      1.70162232182202      0.00918089518544
| 47> **                         ****END OF INPUT****

CARTESIAN COORDINATES (ANGSTROEM)
---------------------------------
  C      2.729224   -3.227177    0.004205
  C      1.532108   -3.948995    0.003467
  C      0.438988   -3.065459    0.004357
  C     -0.914206   -3.473580    0.003923
  C     -2.084178   -2.747926    0.004632
  C     -2.215895   -1.338648    0.006068
  C     -3.427212   -0.584899    0.006827
  C     -3.632692    0.632567    0.008082
  C     -2.649635    1.663375    0.009148
  C     -2.609021    3.081138    0.010599
  C     -1.397504    3.767546    0.011288
  C     -0.141690    3.093122    0.010598
  C      1.189862    3.617151    0.011134
  C      2.272364    2.767601    0.010281
  C      2.179254    1.325313    0.008818
  C      3.362732    0.530332    0.008038
  C      3.457479   -0.839071    0.006653
  C      2.460301   -1.847076    0.005609
  C      0.306928   -0.542070    0.006908
  C     -1.408227    0.993279    0.008464
  C     -1.149916   -0.394753    0.007045
  C      1.006539   -1.714294    0.005735
  H      3.722404   -3.656447    0.003773
  H      1.446955   -5.027527    0.002367
  H     -1.042066   -4.553518    0.002824
  H     -3.011854   -3.308048    0.004045
  H     -3.536277    3.641543    0.011183
  H     -1.415124    4.852295    0.012397
  H      1.353757    4.689680    0.012221
  H      3.268974    3.196534    0.010725
  H      4.299688    1.078758    0.008610
  H      4.471372   -1.232781    0.006271
  C      0.880320    0.807714    0.008276
  C     -0.198323    1.701622    0.009181

 Total Charge           Charge          ....    0
 Multiplicity           Mult            ....    1
 Number of Electrons    NEL             ....  154
 Basis Dimension        Dim             ....  588

ORBITAL ENERGIES
----------------

  NO   OCC          E(Eh)            E(eV)
   0   2.0000     -10.228517      -278.3321
   1   2.0000     -10.219696      -278.0921
   2   2.0000     -10.218733      -278.0659
   3   2.0000     -10.207349      -277.7561
   4   2.0000     -10.206842      -277.7423
   5   2.0000     -10.197187      -277.4796
   6   2.0000     -10.196833      -277.4699
   7   2.0000     -10.196753      -277.4678
   8   2.0000     -10.195144      -277.4240
   9   2.0000     -10.194400      -277.4037
  10   2.0000     -10.193960      -277.3918
  11   2.0000     -10.193346      -277.3751
  12   2.0000     -10.191322      -277.3200
  13   2.0000     -10.190752      -277.3045
  14   2.0000     -10.190658      -277.3019
  15   2.0000     -10.189487      -277.2700
  16   2.0000     -10.188725      -277.2493
  17   2.0000     -10.186287      -277.1830
  18   2.0000     -10.185947      -277.1737
  19   2.0000     -10.184856      -277.1440
  20   2.0000     -10.184298      -277.1288
  21   2.0000     -10.179398      -276.9955
  22   2.0000     -10.176891      -276.9273
  23   2.0000     -10.176264      -276.9102
  24   2.0000      -0.928933       -25.2775
  25   2.0000      -0.891993       -24.2724
  26   2.0000      -0.875852       -23.8331
  27   2.0000      -0.848172       -23.0799
  28   2.0000      -0.829394       -22.5690
  29   2.0000      -0.822901       -22.3923
  30   2.0000      -0.789078       -21.4719
  31   2.0000      -0.774498       -21.0752
  32   2.0000      -0.762655       -20.7529
  33   2.0000      -0.732386       -19.9292
  34   2.0000      -0.729042       -19.8383
  35   2.0000      -0.714927       -19.4541
  36   2.0000      -0.676245       -18.4016
  37   2.0000      -0.650063       -17.6891
  38   2.0000      -0.645676       -17.5697
  39   2.0000      -0.626085       -17.0366
  40   2.0000      -0.600543       -16.3416
  41   2.0000      -0.588136       -16.0040
  42   2.0000      -0.573375       -15.6023
  43   2.0000      -0.553270       -15.0552
  44   2.0000      -0.544518       -14.8171
  45   2.0000      -0.528007       -14.3678
  46   2.0000      -0.515319       -14.0225
  47   2.0000      -0.510598       -13.8941
  48   2.0000      -0.479195       -13.0395
  49   2.0000      -0.475611       -12.9420
  50   2.0000      -0.462859       -12.5950
  51   2.0000      -0.456822       -12.4307
  52   2.0000      -0.443878       -12.0785
  53   2.0000      -0.443193       -12.0599
  54   2.0000      -0.442331       -12.0364
  55   2.0000      -0.427667       -11.6374
  56   2.0000      -0.418132       -11.3780
  57   2.0000      -0.410908       -11.1814
  58   2.0000      -0.401944       -10.9375
  59   2.0000      -0.393875       -10.7179
  60   2.0000      -0.391123       -10.6430
  61   2.0000      -0.387098       -10.5335
  62   2.0000      -0.378667       -10.3041
  63   2.0000      -0.374114       -10.1802
  64   2.0000      -0.372918       -10.1476
  65   2.0000      -0.354663        -9.6509
  66   2.0000      -0.352573        -9.5940
  67   2.0000      -0.337164        -9.1747
  68   2.0000      -0.335600        -9.1321
  69   2.0000      -0.334231        -9.0949
  70   2.0000      -0.284327        -7.7369
  71   2.0000      -0.282062        -7.6753
  72   2.0000      -0.275339        -7.4923
  73   2.0000      -0.266931        -7.2636
  74   2.0000      -0.240241        -6.5373
  75   2.0000      -0.224731        -6.1152
  76   2.0000      -0.195823        -5.3286
  77   0.0000      -0.100085        -2.7235
  78   0.0000      -0.084110        -2.2887
  79   0.0000      -0.074142        -2.0175
  80   0.0000      -0.067791        -1.8447
  81   0.0000      -0.021213        -0.5772

MULLIKEN ATOMIC CHARGES
-----------------------
   0 C :   -0.653910
   1 C :   -0.545274
   2 C :    2.577631
   3 C :   -0.054174
   4 C :   -0.121584
   5 C :    0.704751
   6 C :   -0.120735
   7 C :    0.253247
   8 C :    1.461847
   9 C :   -0.380597
  10 C :   -0.138597
  11 C :    1.614946
  12 C :   -0.850871
  13 C :    0.179290
  14 C :    0.994745
  15 C :    0.143711
  16 C :   -0.229158
  17 C :    2.564666
  18 C :    0.009443
  19 C :   -1.075662
  20 C :   -0.888024
  21 C :   -4.220284
  22 H :    0.122340
  23 H :    0.123365
  24 H :    0.135610
  25 H :    0.140472
  26 H :    0.141943
  27 H :    0.132488
  28 H :    0.132325
  29 H :    0.126791
  30 H :    0.125491
  31 H :    0.129795
  32 C :   -0.961818
  33 C :   -1.574209
Sum of atomic charges:   -0.0000000

LOEWDIN ATOMIC CHARGES
----------------------
   0 C :   -0.044857
   1 C :   -0.046462
   2 C :   -0.090419
   3 C :   -0.009156
   4 C :   -0.068793
   5 C :   -0.035129
   6 C :    0.012956
   7 C :    0.019831
   8 C :   -0.058165
   9 C :   -0.033349
  10 C :   -0.029535
  11 C :   -0.070074
  12 C :   -0.017052
  13 C :   -0.032525
  14 C :   -0.042024
  15 C :   -0.066545
  16 C :   -0.015434
  17 C :   -0.090967
  18 C :    0.040433
  19 C :   -0.032503
  20 C :   -0.039885
  21 C :    0.003284
  22 H :    0.077117
  23 H :    0.077194
  24 H :    0.087389
  25 H :    0.085097
  26 H :    0.083335
  27 H :    0.080896
  28 H :    0.081557
  29 H :    0.080725
  30 H :    0.080324
  31 H :    0.086252
  32 C :   -0.039647
  33 C :   -0.033870

  Mayer bond orders larger than 0.100000
B(  0-C ,  1-C ) :   1.3272 B(  0-C ,  2-C ) :  -0.8738 B(  0-C ,  3-C ) :  -0.3706
B(  0-C , 15-C ) :   0.1244 B(  0-C , 16-C ) :  -1.0448 B(  0-C , 17-C ) :  -1.0735
B(  0-C , 18-C ) :   0.2273 B(  0-C , 20-C ) :   0.1071 B(  0-C , 21-C ) :   3.3119
B(  0-C , 22-H ) :   1.2374 B(  1-C ,  2-C ) :  -1.2269 B(  1-C ,  3-C ) :  -1.2034
B(  1-C ,  7-C ) :   0.1055 B(  1-C , 12-C ) :   0.1314 B(  1-C , 16-C ) :  -0.3416
B(  1-C , 17-C ) :  -0.8218 B(  1-C , 18-C ) :   0.2619 B(  1-C , 21-C ) :   3.5803
B(  1-C , 23-H ) :   1.1762 B(  1-C , 32-C ) :   0.2147 B(  1-C , 33-C ) :  -0.3141
B(  2-C ,  3-C ) :   1.4556 B(  2-C ,  4-C ) :   0.6171 B(  2-C ,  5-C ) :  -0.3139
B(  2-C ,  6-C ) :   0.4371 B(  2-C ,  7-C ) :  -0.5325 B(  2-C ,  8-C ) :   0.4167
B(  2-C , 11-C ) :   0.1611 B(  2-C , 12-C ) :   0.2568 B(  2-C , 13-C ) :  -0.1962
B(  2-C , 14-C ) :   0.1200 B(  2-C , 15-C ) :   0.1640 B(  2-C , 16-C ) :  -0.1185
B(  2-C , 17-C ) :   2.0344 B(  2-C , 18-C ) :  -0.7560 B(  2-C , 20-C ) :  -0.2708
B(  2-C , 21-C ) :  -4.7203 B(  2-C , 22-H ) :  -0.1325 B(  2-C , 23-H ) :  -0.4672
B(  2-C , 24-H ) :  -0.2859 B(  2-C , 32-C ) :   0.2182 B(  2-C , 33-C ) :  -0.1354
B(  3-C ,  5-C ) :   0.3441 B(  3-C ,  8-C ) :  -0.2118 B(  3-C , 11-C ) :   0.1350
B(  3-C , 14-C ) :   0.1233 B(  3-C , 16-C ) :   0.6159 B(  3-C , 17-C ) :  -0.2393
B(  3-C , 21-C ) :  -0.1568 B(  3-C , 23-H ) :  -0.2711 B(  3-C , 24-H ) :   1.0511
B(  3-C , 25-H ) :  -0.1430 B(  3-C , 32-C ) :  -0.4127 B(  3-C , 33-C ) :   0.2985
B(  4-C ,  5-C ) :   0.2915 B(  4-C ,  6-C ) :  -1.1877 B(  4-C ,  7-C ) :   0.2929
B(  4-C ,  8-C ) :  -0.1006 B(  4-C , 11-C ) :   0.2023 B(  4-C , 12-C ) :   0.1478
B(  4-C , 15-C ) :  -0.2181 B(  4-C , 16-C ) :   0.1901 B(  4-C , 17-C ) :   0.2736
B(  4-C , 18-C ) :  -0.1199 B(  4-C , 19-C ) :   0.2821 B(  4-C , 20-C ) :   0.3275
B(  4-C , 21-C ) :  -0.5595 B(  4-C , 25-H ) :   1.1876 B(  4-C , 33-C ) :  -0.3421
B(  5-C ,  6-C ) :   0.3481 B(  5-C ,  8-C ) :  -0.3048 B(  5-C ,  9-C ) :   0.1594
B(  5-C , 13-C ) :   0.3087 B(  5-C , 15-C ) :  -0.1776 B(  5-C , 16-C ) :   0.2955
B(  5-C , 17-C ) :  -0.4010 B(  5-C , 19-C ) :  -0.2044 B(  5-C , 20-C ) :   1.5144
B(  5-C , 21-C ) :   0.7051 B(  5-C , 25-H ) :  -0.3621 B(  5-C , 32-C ) :  -0.5131
B(  5-C , 33-C ) :  -0.1398 B(  6-C ,  7-C ) :  -0.7304 B(  6-C ,  8-C ) :   0.1300
B(  6-C ,  9-C ) :   0.1385 B(  6-C , 10-C ) :   0.2562 B(  6-C , 12-C ) :  -0.1259
B(  6-C , 14-C ) :  -0.2794 B(  6-C , 15-C ) :   0.1857 B(  6-C , 16-C ) :  -0.2387
B(  6-C , 18-C ) :  -0.2555 B(  6-C , 19-C ) :  -0.3273 B(  6-C , 20-C ) :   1.1799
B(  6-C , 26-H ) :  -0.1334 B(  6-C , 32-C ) :   0.4475 B(  6-C , 33-C ) :   0.1626
B(  7-C ,  8-C ) :   0.4150 B(  7-C ,  9-C ) :  -1.8399 B(  7-C , 11-C ) :  -0.3056
B(  7-C , 12-C ) :   0.2083 B(  7-C , 14-C ) :   0.3537 B(  7-C , 18-C ) :   0.1813
B(  7-C , 19-C ) :   1.4350 B(  7-C , 21-C ) :   0.1071 B(  7-C , 32-C ) :  -0.3654
B(  7-C , 33-C ) :   0.3318 B(  8-C ,  9-C ) :   0.3253 B(  8-C , 10-C ) :  -0.1551
B(  8-C , 11-C ) :   0.4370 B(  8-C , 12-C ) :  -0.3182 B(  8-C , 14-C ) :  -0.1798
B(  8-C , 15-C ) :   0.2399 B(  8-C , 17-C ) :   0.4430 B(  8-C , 19-C ) :   0.5271
B(  8-C , 20-C ) :  -0.5575 B(  8-C , 21-C ) :  -0.6514 B(  8-C , 26-H ) :  -0.4402
B(  8-C , 27-H ) :  -0.1000 B(  8-C , 32-C ) :   0.3476 B(  8-C , 33-C ) :  -0.4067
B(  9-C , 10-C ) :   0.6706 B(  9-C , 13-C ) :   0.2584 B(  9-C , 16-C ) :  -0.1002
B(  9-C , 19-C ) :   0.6835 B(  9-C , 21-C ) :  -0.1372 B(  9-C , 26-H ) :   1.2051
B(  9-C , 32-C ) :   0.1437 B( 10-C , 11-C ) :   0.6029 B( 10-C , 12-C ) :  -1.4154
B( 10-C , 13-C ) :   0.3440 B( 10-C , 14-C ) :  -0.1835 B( 10-C , 15-C ) :   0.1542
B( 10-C , 16-C ) :   0.1759 B( 10-C , 19-C ) :   0.1809 B( 10-C , 20-C ) :   0.1181
B( 10-C , 27-H ) :   1.0249 B( 10-C , 28-H ) :  -0.1829 B( 10-C , 33-C ) :   0.6663
B( 11-C , 12-C ) :  -0.6913 B( 11-C , 13-C ) :   0.4000 B( 11-C , 14-C ) :   0.2806
B( 11-C , 15-C ) :   0.3395 B( 11-C , 16-C ) :  -0.2317 B( 11-C , 17-C ) :  -0.1004
B( 11-C , 18-C ) :   0.1806 B( 11-C , 19-C ) :  -0.3682 B( 11-C , 20-C ) :   0.4298
B( 11-C , 21-C ) :  -0.7808 B( 11-C , 27-H ) :  -0.4765 B( 11-C , 28-H ) :  -0.4802
B( 11-C , 29-H ) :  -0.1092 B( 11-C , 32-C ) :  -0.3651 B( 11-C , 33-C ) :   0.3647
B( 12-C , 14-C ) :  -0.2707 B( 12-C , 15-C ) :  -0.3022 B( 12-C , 17-C ) :  -0.1199
B( 12-C , 18-C ) :   0.1290 B( 12-C , 19-C ) :   0.3587 B( 12-C , 20-C ) :  -0.2357
B( 12-C , 27-H ) :  -0.1515 B( 12-C , 28-H ) :   1.2817 B( 12-C , 32-C ) :   0.6498
B( 12-C , 33-C ) :   2.3371 B( 13-C , 14-C ) :   0.1236 B( 13-C , 15-C ) :  -0.6549
B( 13-C , 19-C ) :   0.1333 B( 13-C , 20-C ) :   0.3179 B( 13-C , 21-C ) :  -0.1120
B( 13-C , 28-H ) :  -0.1951 B( 13-C , 29-H ) :   1.1111 B( 13-C , 32-C ) :   1.2247
B( 13-C , 33-C ) :  -0.8725 B( 14-C , 15-C ) :   0.7987 B( 14-C , 16-C ) :   0.4049
B( 14-C , 17-C ) :  -0.1163 B( 14-C , 18-C ) :  -0.2507 B( 14-C , 20-C ) :  -0.4606
B( 14-C , 21-C ) :   0.5793 B( 14-C , 29-H ) :  -0.4356 B( 14-C , 30-H ) :  -0.4799
B( 14-C , 32-C ) :   1.4867 B( 14-C , 33-C ) :   0.1011 B( 15-C , 17-C ) :   0.7397
B( 15-C , 19-C ) :  -0.3771 B( 15-C , 20-C ) :  -0.3368 B( 15-C , 21-C ) :  -0.2773
B( 15-C , 29-H ) :  -0.1641 B( 15-C , 30-H ) :   1.2305 B( 15-C , 31-H ) :  -0.1727
B( 15-C , 32-C ) :   0.2975 B( 15-C , 33-C ) :  -0.3157 B( 16-C , 17-C ) :   0.9872
B( 16-C , 19-C ) :   0.1343 B( 16-C , 20-C ) :  -0.2265 B( 16-C , 22-H ) :  -0.2340
B( 16-C , 30-H ) :  -0.1692 B( 16-C , 31-H ) :   1.1531 B( 16-C , 32-C ) :  -0.1206
B( 16-C , 33-C ) :   0.1589 B( 17-C , 18-C ) :  -0.8207 B( 17-C , 19-C ) :   0.1819
B( 17-C , 20-C ) :  -0.1256 B( 17-C , 21-C ) :  -4.0153 B( 17-C , 22-H ) :  -0.4447
B( 17-C , 23-H ) :  -0.1208 B( 17-C , 31-H ) :  -0.2490 B( 17-C , 32-C ) :  -0.7256
B( 17-C , 33-C ) :   0.5716 B( 18-C , 19-C ) :   0.3723 B( 18-C , 20-C ) :   1.6221
B( 18-C , 21-C ) :   3.4996 B( 18-C , 32-C ) :   1.4632 B( 19-C , 20-C ) :   1.6884
B( 19-C , 21-C ) :  -0.4654 B( 19-C , 26-H ) :   0.4002 B( 19-C , 32-C ) :  -0.2374
B( 19-C , 33-C ) :   2.4687 B( 20-C , 21-C ) :   1.3930 B( 20-C , 25-H ) :   0.2780
B( 20-C , 32-C ) :   0.6850 B( 20-C , 33-C ) :  -0.2665 B( 21-C , 22-H ) :   0.5787
B( 21-C , 23-H ) :   0.6939 B( 21-C , 24-H ) :   0.2467 B( 21-C , 31-H ) :   0.2087
B( 21-C , 32-C ) :   1.2674 B( 21-C , 33-C ) :   0.1223 B( 27-H , 33-C ) :   0.6106
B( 28-H , 33-C ) :   0.5458 B( 29-H , 32-C ) :   0.4039 B( 29-H , 33-C ) :   0.1051
B( 30-H , 32-C ) :   0.3263 B( 32-C , 33-C ) :   1.6943

-----------------------------------------------------------------------------
         ABSORPTION SPECTRUM VIA TRANSITION ELECTRIC DIPOLE MOMENTS
-----------------------------------------------------------------------------
State   Energy    Wavelength  fosc         T2        TX        TY        TZ
        (cm-1)      (nm)                 (au**2)    (au)      (au)      (au)
-----------------------------------------------------------------------------
   1   14988.5    667.2   0.005237101   0.11503   0.29212   0.17232   0.00018
   2   19141.6    522.4   0.000034033   0.00059   0.00001  -0.00003   0.02419
   3   22211.6    450.2   0.008297125   0.12298   0.32639  -0.12824  -0.00013
   4   24538.6    407.5   0.011209673   0.15039  -0.33906  -0.18823  -0.00020
   5   24785.8    403.5   0.073076366   0.97062  -0.98501   0.01918  -0.00000
   6   24847.0    402.5   0.000096286   0.00128  -0.00016  -0.00005   0.03572
   7   25645.3    389.9   0.068236593   0.87596   0.17635  -0.91916  -0.00093
   8   26290.9    380.4   0.000132229   0.00166  -0.00001   0.00005  -0.04069
   9   29814.5    335.4   0.048014293   0.53017  -0.03471  -0.72730  -0.00074
  10   30829.8    324.4   0.041059323   0.43845   0.47102   0.46539   0.00047
  11   32077.0    311.7   0.000121216   0.00124  -0.00009  -0.00004   0.03527
  12   32225.1    310.3   0.052960871   0.54105   0.70105   0.22267   0.00024
  13   33301.5    300.3   0.075054210   0.74197  -0.39619   0.76485   0.00078
  14   34404.7    290.7   0.000190271   0.00182   0.00000   0.00004  -0.04267
  15   34640.4    288.7   0.007273834   0.06913  -0.09561  -0.24492  -0.00025
  16   35274.1    283.5   0.022350372   0.20860  -0.10161   0.44527   0.00045
  17   36709.1    272.4   0.142433359   1.27736  -0.12394   1.12339   0.00113
  18   37113.7    269.4   0.000089295   0.00079   0.00006  -0.00010  -0.02814
  19   37297.6    268.1   0.268610433   2.37092  -1.53976   0.00886   0.00004
  20   37314.1    268.0   0.000836853   0.00738  -0.00081   0.00007  -0.08592
  21   37884.2    264.0   0.000044893   0.00039   0.00011   0.00026   0.01975
  22   37975.2    263.3   0.209677642   1.81772   0.53181   1.23891   0.00125
  23   38230.8    261.6   0.000273614   0.00236   0.00002   0.00005  -0.04854
  24   39270.0    254.6   0.025907698   0.21719   0.37866  -0.27168  -0.00027
  25   39466.3    253.4   0.066071840   0.55114  -0.23513   0.70417   0.00071
  26   39877.4    250.8   0.000012041   0.00010  -0.00001   0.00001  -0.00997
  27   40027.2    249.8   0.000979396   0.00806   0.00000  -0.00008   0.08975
  28   41031.8    243.7   0.000137413   0.00110   0.00002   0.00002  -0.03320
  29   41333.9    241.9   0.045925221   0.36578  -0.60457  -0.01678  -0.00002
  30   41439.4    241.3   0.132712894   1.05433  -0.31306   0.97792   0.00099
  31   42048.3    237.8   0.024565364   0.19233  -0.43015  -0.08545  -0.00009
  32   42698.5    234.2   0.076151375   0.58714   0.57332  -0.50837  -0.00051
  33   42978.2    232.7   0.000000000   0.00000   0.00000  -0.00000  -0.00000
  34   42978.2    232.7   0.000000000   0.00000  -0.00000   0.00000  -0.00000
  35   42978.2    232.7   0.000000000   0.00000   0.00000  -0.00000   0.00000
  36   42978.2    232.7   0.000000000   0.00000   0.00000  -0.00000   0.00000
  37   42978.2    232.7   0.000000000   0.00000  -0.00000   0.00000   0.00000
  38   42978.2    232.7   0.000000000   0.00000  -0.00000  -0.00000  -0.00000
  39   43279.4    231.1   0.000000329   0.00000  -0.00003   0.00004   0.00158
  40   43363.1    230.6   0.000032471   0.00025   0.00003  -0.00001  -0.01570
  41   43471.7    230.0   0.000131605   0.00100   0.00002   0.00001  -0.03157
  42   44261.1    225.9   0.135750994   1.00971   0.40483  -0.91968  -0.00093
  43   44612.3    224.2   0.000501623   0.00370  -0.00005   0.00013  -0.06084
  44   44738.8    223.5   1.944030806  14.30521  -1.94740   3.24235   0.00328
  45   44842.4    223.0   0.000184246   0.00135   0.00012  -0.00025   0.03678
  46   45934.9    217.7   0.003906699   0.02800   0.03220   0.16420   0.00017
  47   46387.1    215.6   0.000389068   0.00276  -0.00010  -0.00016   0.05255
  48   46432.1    215.4   0.165197310   1.17128  -0.69006  -0.83372  -0.00087
  49   47166.8    212.0   0.001790917   0.01250   0.00016   0.00018  -0.11180
  50   47300.0    211.4   0.745501701   5.18876   2.19263   0.61735   0.00069
  51   47418.8    210.9   0.004503442   0.03127   0.00018   0.00022  -0.17682
  52   47619.6    210.0   0.001760826   0.01217   0.00049   0.00041  -0.11033
  53   47720.3    209.6   0.067727369   0.46724   0.19029   0.65653   0.00071
  54   47965.8    208.5   0.003072328   0.02109  -0.00005   0.00017  -0.14521
  55   48199.2    207.5   0.004321417   0.02952   0.17150  -0.01012  -0.00004
  56   48406.0    206.6   0.013829472   0.09406  -0.18312  -0.24601  -0.00025
  57   48526.0    206.1   0.000000219   0.00000  -0.00004   0.00002   0.00122
  58   48587.3    205.8   0.000000053   0.00000   0.00002  -0.00004  -0.00060
  59   48668.9    205.5   0.030560934   0.20672  -0.44650   0.08579   0.00007
  60   49061.7    203.8   0.261143332   1.75231   1.24382  -0.45302  -0.00044
  61   49217.9    203.2   0.001253940   0.00839   0.00004  -0.00008   0.09158
  62   49322.7    202.7   0.000000000   0.00000  -0.00000   0.00000   0.00000
  63   49322.7    202.7   0.000000000   0.00000  -0.00000  -0.00000   0.00000
  64   49322.7    202.7   0.000000000   0.00000  -0.00000  -0.00000  -0.00000
  65   49322.7    202.7   0.000000000   0.00000  -0.00000  -0.00000   0.00000
  66   49322.7    202.7   0.000000000   0.00000  -0.00000  -0.00000   0.00000
  67   49322.7    202.7   0.000000000   0.00000   0.00000   0.00000   0.00000
  68   49377.2    202.5   0.008017185   0.05345   0.00008   0.00020  -0.23120
  69   49571.6    201.7   0.000500293   0.00332   0.00033  -0.00044   0.05764
  70   49588.5    201.7   0.222854518   1.47950  -0.49383   1.11159   0.00114
  71   49653.3    201.4   0.000167499   0.00111   0.00013  -0.00020   0.03332
  72   49821.2    200.7   0.314163626   2.07595  -0.26588   1.41607   0.00148
  73   49838.2    200.6   0.000063431   0.00042  -0.00057   0.00237  -0.02032
  74   49933.3    200.3   0.000308562   0.00203   0.00008  -0.00060   0.04510
  75   50060.0    199.8   0.567164762   3.72987   1.35582   1.37537   0.00140
  76   50480.5    198.1   0.000248688   0.00162   0.00004   0.00007  -0.04027
  77   50649.9    197.4   0.002620813   0.01703  -0.00000  -0.00012   0.13052
  78   50901.9    196.5   0.000907655   0.00587  -0.00001   0.00014  -0.07662
  79   51028.5    196.0   0.000003214   0.00002   0.00003   0.00007   0.00455
  80   51093.3    195.7   0.072476288   0.46699   0.04478   0.68190   0.00070
  81   51444.0    194.4   0.142519020   0.91204  -0.92701   0.22955   0.00022
  82   51694.4    193.4   0.001642526   0.01046  -0.00006  -0.00002   0.10228
  83   52134.7    191.8   0.000032765   0.00021  -0.00012  -0.00004   0.01438
  84   52199.5    191.6   0.070615494   0.44536  -0.46493  -0.47875  -0.00050
  85   52237.9    191.4   0.000155954   0.00098   0.00002   0.00007  -0.03135
  86   52414.6    190.8   0.044741190   0.28102   0.18550   0.49659   0.00050
  87   52613.7    190.1   0.000823936   0.00516  -0.00002   0.00003  -0.07180
  88   52651.8    189.9   0.000266538   0.00167  -0.00003   0.00003   0.04082
  89   52726.9    189.7   0.000000000   0.00000  -0.00000  -0.00000  -0.00000
  90   52726.9    189.7   0.000000000   0.00000   0.00000   0.00000   0.00000
  91   52726.9    189.7   0.000000000   0.00000  -0.00000   0.00000  -0.00000
  92   52726.9    189.7   0.000000000   0.00000  -0.00000   0.00000  -0.00000
  93   52726.9    189.7   0.000000000   0.00000   0.00000   0.00000   0.00000
  94   52726.9    189.7   0.000000000   0.00000   0.00000   0.00000   0.00000
  95   52801.2    189.4   0.000031810   0.00020  -0.00003  -0.00002   0.01408
  96   53037.5    188.5   0.000413343   0.00257  -0.00004   0.00004  -0.05065
  97   53094.5    188.3   0.063580937   0.39423   0.35607  -0.51715  -0.00050
  98   53149.4    188.1   0.000740054   0.00458   0.00000   0.00002  -0.06770
  99   53261.3    187.8   0.037929955   0.23445   0.44743  -0.18507  -0.00019
 100   53627.7    186.5   0.002823367   0.01733  -0.00002   0.00014  -0.13165
 101   53686.8    186.3   0.000014591   0.00009  -0.00004   0.00005   0.00946
 102   53886.1    185.6   0.000022308   0.00014   0.00034  -0.00002   0.01167
 103   53906.8    185.5   0.023793920   0.14531   0.38112  -0.00787  -0.00002
 104   54082.6    184.9   0.011811467   0.07190   0.13693  -0.23054  -0.00024
 105   54273.2    184.3   0.000001002   0.00001   0.00003   0.00001  -0.00247
 106   54361.2    184.0   0.002937535   0.01779   0.02190  -0.13157  -0.00012
 107   54373.1    183.9   0.014144327   0.08564   0.15614   0.24751   0.00026
 108   54498.2    183.5   0.015076078   0.09107   0.25320  -0.16420  -0.00018
 109   54550.8    183.3   0.001260247   0.00761  -0.00000   0.00007  -0.08721
 110   54744.8    182.7   0.000015789   0.00009  -0.00006   0.00001   0.00974
 111   55003.2    181.8   0.034162781   0.20448   0.42836   0.14487   0.00016
 112   55078.3    181.6   0.093457722   0.55861  -0.73598   0.13020   0.00015
 113   55227.4    181.1   0.000022085   0.00013  -0.00042  -0.00037  -0.01146
 114   55267.6    180.9   0.203220336   1.21052  -0.79201  -0.76370  -0.00078
 115   55743.4    179.4   0.000509016   0.00301   0.00001  -0.00006   0.05483
 116   55755.3    179.4   0.230460182   1.36077   0.83405   0.81555   0.00085
 117   55814.1    179.2   0.120405613   0.71020   0.53674  -0.64970  -0.00064
 118   55950.8    178.7   0.004327160   0.02546  -0.00006   0.00020  -0.15956
 119   56047.8    178.4   0.000111502   0.00065  -0.00013   0.00005   0.02559
 120   56096.6    178.3   0.007713995   0.04527   0.00008  -0.00028   0.21277
 121   56133.9    178.1   0.326356149   1.91400   1.12596  -0.80388  -0.00081
 122   56502.8    177.0   0.003105478   0.01809   0.00012  -0.00001  -0.13451
 123   56614.1    176.6   0.000801900   0.00466   0.00005  -0.00006   0.06829
 124   56793.5    176.1   0.027064283   0.15688   0.08430   0.38701   0.00038
 125   56918.3    175.7   0.025671425   0.14848  -0.22353  -0.31387  -0.00032
 126   56952.8    175.6   0.000001339   0.00001  -0.00003   0.00001  -0.00278
 127   57144.1    175.0   0.000391039   0.00225   0.00002  -0.00015   0.04746
 128   57285.8    174.6   0.131518584   0.75582  -0.23421   0.83723   0.00084
 129   57384.4    174.3   0.001285453   0.00737  -0.00010  -0.00005   0.08588
 130   57491.3    173.9   0.000158306   0.00091  -0.00009   0.00009  -0.03011
 131   57599.3    173.6   0.047843426   0.27345   0.49772  -0.16039  -0.00013
 132   57633.2    173.5   0.000275500   0.00157  -0.00022   0.00001   0.03967
 133   57858.2    172.8   0.050463820   0.28714  -0.15374  -0.51332  -0.00051
 134   57904.2    172.7   0.079313726   0.45094  -0.38051   0.55330   0.00057
 135   57971.9    172.5   0.000291892   0.00166   0.00009  -0.00001   0.04071
 136   58008.8    172.4   0.000386629   0.00219   0.00000  -0.00010   0.04684
 137   58067.9    172.2   0.000229341   0.00130  -0.00005  -0.00002   0.03606
 138   58170.8    171.9   0.000201767   0.00114   0.00006   0.00001   0.03379
 139   58216.1    171.8   0.011953811   0.06760   0.13692   0.22102   0.00022
 140   58298.3    171.5   0.012060332   0.06810   0.25353  -0.06186  -0.00006
 141   58412.3    171.2   0.002358600   0.01329  -0.01232   0.00456   0.11454
 142   58413.5    171.2   0.081801546   0.46102  -0.63471   0.24117  -0.00199
 143   58470.3    171.0   0.000018780   0.00011   0.00018  -0.00018   0.01028
 144   58471.5    171.0   0.005618267   0.03163   0.13942  -0.11043  -0.00013
 145   58584.5    170.7   0.000000000   0.00000  -0.00000   0.00000   0.00000
 146   58584.5    170.7   0.000000000   0.00000  -0.00000   0.00000  -0.00000
 147   58584.5    170.7   0.000000000   0.00000   0.00000  -0.00000   0.00000
 148   58584.5    170.7   0.000000000   0.00000  -0.00000  -0.00000   0.00000
 149   58584.5    170.7   0.000000000   0.00000  -0.00000   0.00000  -0.00000
 150   58584.5    170.7   0.000000000   0.00000   0.00000  -0.00000   0.00000
 151   58594.4    170.7   0.000014934   0.00008   0.00009  -0.00010   0.00916
 152   58789.0    170.1   0.030630549   0.17153  -0.28850  -0.29715  -0.00030
 153   58810.5    170.0   0.001441819   0.00807  -0.00001   0.00003  -0.08984
 154   58876.4    169.8   0.039847130   0.22281  -0.03785  -0.47051  -0.00047
 155   58928.6    169.7   0.000020075   0.00011   0.00003  -0.00020  -0.01059
 156   59024.5    169.4   0.000009842   0.00005  -0.00013   0.00003   0.00741
 157   59095.8    169.2   0.030432271   0.16953   0.38258  -0.15220  -0.00013
 158   59104.4    169.2   0.000041258   0.00023   0.00091  -0.00038  -0.01513
 159   59331.3    168.5   0.002108548   0.01170  -0.01016  -0.00091  -0.10768
 160   59331.9    168.5   0.058018358   0.32192   0.56450   0.05705  -0.00189
 161   59611.9    167.8   0.000061728   0.00034  -0.00006  -0.00003  -0.01846
 162   59759.8    167.3   0.054344732   0.29938  -0.26541   0.47848   0.00051
 163   59762.8    167.3   0.115490314   0.63620   0.62532   0.49515   0.00052
 164   59776.8    167.3   0.001327639   0.00731  -0.00010  -0.00034   0.08551
 165   59958.1    166.8   0.000009077   0.00005   0.00001  -0.00003   0.00706
 166   60001.3    166.7   0.000074742   0.00041   0.00001  -0.00006   0.02025
 167   60136.8    166.3   0.000319586   0.00175  -0.00013  -0.00001  -0.04183
 168   60188.6    166.1   0.000004733   0.00003   0.00024   0.00010   0.00508
 169   60269.3    165.9   0.168874076   0.92245   0.81940   0.50103   0.00051
 170   60336.6    165.7   0.000645700   0.00352  -0.00015  -0.00023   0.05936
 171   60411.1    165.5   0.000018452   0.00010   0.00001   0.00003  -0.01003
 172   60429.8    165.5   0.000000000   0.00000  -0.00000   0.00000  -0.00000
 173   60429.8    165.5   0.000000000   0.00000   0.00000  -0.00000  -0.00000
 174   60429.8    165.5   0.000000000   0.00000  -0.00000   0.00000   0.00000
 175   60429.8    165.5   0.000000000   0.00000  -0.00000   0.00000   0.00000
 176   60429.8    165.5   0.000000000   0.00000   0.00000  -0.00000   0.00000
 177   60429.8    165.5   0.000000000   0.00000  -0.00000   0.00000   0.00000
 178   60461.2    165.4   0.028881464   0.15726   0.03343   0.39515   0.00042
 179   60537.5    165.2   0.000610605   0.00332  -0.00005   0.00008  -0.05762
 180   60769.8    164.6   0.001097705   0.00595  -0.00003  -0.00028   0.07711
 181   60800.4    164.5   0.000287661   0.00156   0.00003   0.00032   0.03946
 182   60828.3    164.4   0.029388325   0.15905   0.00350  -0.39880  -0.00037
 183   60962.7    164.0   0.008963099   0.04840   0.04499   0.21536   0.00027
 184   60988.3    164.0   0.000129904   0.00070   0.00001   0.00012  -0.02648
 185   61169.0    163.5   0.004539426   0.02443   0.00035  -0.00003   0.15630
 186   61216.8    163.4   0.030160899   0.16220   0.36652   0.16692   0.00002
 187   61402.6    162.9   0.005929923   0.03179   0.00156  -0.17830  -0.00019
 188   61572.2    162.4   0.089516387   0.47862   0.57588   0.38338   0.00039
 189   61722.1    162.0   0.000018180   0.00010   0.00003   0.00003   0.00985
 190   61879.2    161.6   0.000219308   0.00117   0.00024  -0.00032  -0.03416
 191   61905.4    161.5   0.000000000   0.00000  -0.00000   0.00000  -0.00000
 192   61905.4    161.5   0.000000000   0.00000   0.00000  -0.00000  -0.00000
 193   61905.4    161.5   0.000000000   0.00000   0.00000  -0.00000  -0.00000
 194   61905.4    161.5   0.000000000   0.00000   0.00000  -0.00000  -0.00000
 195   61905.4    161.5   0.000000000   0.00000  -0.00000   0.00000  -0.00000
 196   61905.4    161.5   0.000000000   0.00000   0.00000  -0.00000  -0.00000

Dispersion correction           -0.100862332
FINAL SINGLE POINT ENERGY      -920.134091910136

DIPOLE MOMENT
-------------
                                X             Y             Z
Electronic contribution:     -7.87016       0.63627       0.00054
Nuclear contribution   :      8.66865      -0.38663      -0.00028
                        -----------------------------------------
Total Dipole Moment    :      0.79849       0.24964       0.00026
                        -----------------------------------------
Magnitude (a.u.)       :      0.83661
Magnitude (Debye)      :      2.12649

Rotational constants in cm-1:     0.013376     0.009373     0.005511
Rotational constants in MHz :   401.010047   280.985288   165.218027

                             ****ORCA TERMINATED NORMALLY****
TOTAL RUN TIME: 0 days 5 hours 2 minutes 23 seconds 916 msec
