                         Program Version 5.0.4 -  RELEASE  -
|  1> !b3lyp 6-311+g** d4
|  2>
|  3> %maxcore 5000
|  4> %pal
|  5> nprocs 8
|  6> end
|  7>
|  8> %tddft
|  9>   nroots 1000
| 10>   end
| 11>
| 12> * xyz 0 1
| 13>   C   2.49641452804617     -2.85907498480531     -0.00000597779035
| 14>   C   1.31567630589836     -3.56021203108843     -0.00003520585551
| 15>   C   0.08632952627393     -2.87948684319022     -0.00011047457834
| 16>   C   -1.21257247768970     -3.41723602801014     -0.00015037115020
| 17>   C   -2.28380304445604     -2.81683832588672     -0.00021787810340
| 18>   C   -2.50170439807205     -1.42783366413625     -0.00027068116031
| 19>   C   -3.72341786437277     -0.73357385173854     -0.00034700654079
| 20>   C   -3.74046546193441      0.63955286645760     -0.00039016084572
| 21>   C   -2.53628569379753      1.36376792258368     -0.00035780437167
| 22>   C   -2.35247422108511      2.75764682070294     -0.00039185857111
| 23>   C   -1.29664067470505      3.38477841467350     -0.00036352928552
| 24>   C   0.01516910407842      2.87904993929199     -0.00029019003610
| 25>   C   1.22721477680234      3.59007810672967     -0.00025922992230
| 26>   C   2.42491000584187      2.91834295630444     -0.00018750277290
| 27>   C   2.45001364451078      1.51339856984634     -0.00014460212453
| 28>   C   3.56515347201664      0.65729985444830     -0.00006959203824
| 29>   C   3.58074439728958     -0.57062135719716     -0.00003172323828
| 30>   C   2.48690381465749     -1.45393182951080     -0.00005054324779
| 31>   C   1.24719510834868     -0.70745230184383     -0.00012872085773
| 32>   C   1.22926910960684      0.73632684113963     -0.00017122484632
| 33>   C   -0.01152507743542      1.43233055414097     -0.00024905260043
| 34>   C   -1.25303077452105      0.69501897585913     -0.00027927847044
| 35>   C   -1.23541134188052     -0.72750578219663     -0.00023698938836
| 36>   C   0.02400486047475     -1.43385403430940     -0.00015756011390
| 37>   H   3.44874154393178     -3.37403970623979      0.00005268050898
| 38>   H   1.31216828014358     -4.64285425087905     -0.00000163764577
| 39>   H   -4.64543425601824     -1.30103633941580     -0.00037194733449
| 40>   H   -4.67623349402223      1.18402750178709     -0.00044956303027
| 41>   H   1.19655146335024      4.67228651893198     -0.00029319862223
| 42>   H   3.36434926021425      3.45644941563876     -0.00016371182323
| 43> **                         ****END OF INPUT****

CARTESIAN COORDINATES (ANGSTROEM)
---------------------------------
  C      2.496415   -2.859075   -0.000006
  C      1.315676   -3.560212   -0.000035
  C      0.086330   -2.879487   -0.000110
  C     -1.212572   -3.417236   -0.000150
  C     -2.283803   -2.816838   -0.000218
  C     -2.501704   -1.427834   -0.000271
  C     -3.723418   -0.733574   -0.000347
  C     -3.740465    0.639553   -0.000390
  C     -2.536286    1.363768   -0.000358
  C     -2.352474    2.757647   -0.000392
  C     -1.296641    3.384778   -0.000364
  C      0.015169    2.879050   -0.000290
  C      1.227215    3.590078   -0.000259
  C      2.424910    2.918343   -0.000188
  C      2.450014    1.513399   -0.000145
  C      3.565153    0.657300   -0.000070
  C      3.580744   -0.570621   -0.000032
  C      2.486904   -1.453932   -0.000051
  C      1.247195   -0.707452   -0.000129
  C      1.229269    0.736327   -0.000171
  C     -0.011525    1.432331   -0.000249
  C     -1.253031    0.695019   -0.000279
  C     -1.235411   -0.727506   -0.000237
  C      0.024005   -1.433854   -0.000158
  H      3.448742   -3.374040    0.000053
  H      1.312168   -4.642854   -0.000002
  H     -4.645434   -1.301036   -0.000372
  H     -4.676233    1.184028   -0.000450
  H      1.196551    4.672287   -0.000293
  H      3.364349    3.456449   -0.000164

 Total Charge           Charge          ....    0
 Multiplicity           Mult            ....    1
 Number of Electrons    NEL             ....  150
 Basis Dimension        Dim             ....  564

ORBITAL ENERGIES
----------------

  NO   OCC          E(Eh)            E(eV)
   0   2.0000     -10.227165      -278.2953
   1   2.0000     -10.227163      -278.2952
   2   2.0000     -10.227155      -278.2950
   3   2.0000     -10.227151      -278.2949
   4   2.0000     -10.227138      -278.2946
   5   2.0000     -10.227131      -278.2944
   6   2.0000     -10.217771      -278.0397
   7   2.0000     -10.217589      -278.0347
   8   2.0000     -10.217586      -278.0347
   9   2.0000     -10.217161      -278.0231
  10   2.0000     -10.217158      -278.0230
  11   2.0000     -10.216949      -278.0173
  12   2.0000     -10.198545      -277.5165
  13   2.0000     -10.198540      -277.5164
  14   2.0000     -10.198538      -277.5163
  15   2.0000     -10.197910      -277.4992
  16   2.0000     -10.197905      -277.4991
  17   2.0000     -10.197904      -277.4991
  18   2.0000     -10.191780      -277.3324
  19   2.0000     -10.191776      -277.3323
  20   2.0000     -10.191771      -277.3322
  21   2.0000     -10.189780      -277.2780
  22   2.0000     -10.189777      -277.2779
  23   2.0000     -10.189774      -277.2779
  24   2.0000      -0.932568       -25.3765
  25   2.0000      -0.897837       -24.4314
  26   2.0000      -0.897829       -24.4312
  27   2.0000      -0.850936       -23.1551
  28   2.0000      -0.850929       -23.1549
  29   2.0000      -0.827966       -22.5301
  30   2.0000      -0.805012       -21.9055
  31   2.0000      -0.784521       -21.3479
  32   2.0000      -0.762575       -20.7507
  33   2.0000      -0.762570       -20.7506
  34   2.0000      -0.735277       -20.0079
  35   2.0000      -0.735266       -20.0076
  36   2.0000      -0.663134       -18.0448
  37   2.0000      -0.663127       -18.0446
  38   2.0000      -0.642282       -17.4774
  39   2.0000      -0.635162       -17.2836
  40   2.0000      -0.635150       -17.2833
  41   2.0000      -0.594574       -16.1792
  42   2.0000      -0.556183       -15.1345
  43   2.0000      -0.550400       -14.9771
  44   2.0000      -0.550384       -14.9767
  45   2.0000      -0.530080       -14.4242
  46   2.0000      -0.521140       -14.1809
  47   2.0000      -0.496610       -13.5134
  48   2.0000      -0.496599       -13.5131
  49   2.0000      -0.474810       -12.9202
  50   2.0000      -0.474805       -12.9201
  51   2.0000      -0.456637       -12.4257
  52   2.0000      -0.456624       -12.4254
  53   2.0000      -0.451844       -12.2953
  54   2.0000      -0.451152       -12.2765
  55   2.0000      -0.412570       -11.2266
  56   2.0000      -0.412564       -11.2264
  57   2.0000      -0.411697       -11.2028
  58   2.0000      -0.411692       -11.2027
  59   2.0000      -0.405413       -11.0319
  60   2.0000      -0.402509       -10.9528
  61   2.0000      -0.373448       -10.1620
  62   2.0000      -0.373439       -10.1618
  63   2.0000      -0.359374        -9.7791
  64   2.0000      -0.359368        -9.7789
  65   2.0000      -0.341998        -9.3062
  66   2.0000      -0.300417        -8.1748
  67   2.0000      -0.293012        -7.9733
  68   2.0000      -0.286699        -7.8015
  69   2.0000      -0.283989        -7.7277
  70   2.0000      -0.283988        -7.7277
  71   2.0000      -0.275189        -7.4883
  72   2.0000      -0.275183        -7.4881
  73   2.0000      -0.229534        -6.2459
  74   2.0000      -0.229530        -6.2458
  75   0.0000      -0.092130        -2.5070
  76   0.0000      -0.092120        -2.5067
  77   0.0000      -0.091572        -2.4918
  78   0.0000      -0.080320        -2.1856
  79   0.0000      -0.080314        -2.1855

MULLIKEN ATOMIC CHARGES
-----------------------
   0 C :   -0.252166
   1 C :   -0.076515
   2 C :    1.990483
   3 C :    0.024231
   4 C :   -0.502016
   5 C :    2.046189
   6 C :   -0.077560
   7 C :   -0.319079
   8 C :    1.301387
   9 C :    0.543760
  10 C :   -0.605014
  11 C :    2.496289
  12 C :   -0.182838
  13 C :    0.066790
  14 C :    0.999303
  15 C :   -0.164580
  16 C :   -0.043703
  17 C :    1.411023
  18 C :   -2.575299
  19 C :   -0.360992
  20 C :   -2.306533
  21 C :   -2.301852
  22 C :   -1.018440
  23 C :   -0.964200
  24 H :    0.145222
  25 H :    0.146156
  26 H :    0.144845
  27 H :    0.144788
  28 H :    0.145665
  29 H :    0.144655
Sum of atomic charges:    0.0000000

LOEWDIN ATOMIC CHARGES
----------------------
   0 C :   -0.027903
   1 C :   -0.027845
   2 C :   -0.059020
   3 C :    0.013403
   4 C :    0.013146
   5 C :   -0.058943
   6 C :   -0.027863
   7 C :   -0.027893
   8 C :   -0.059015
   9 C :    0.013474
  10 C :    0.013126
  11 C :   -0.058973
  12 C :   -0.027871
  13 C :   -0.027863
  14 C :   -0.059069
  15 C :    0.013391
  16 C :    0.013214
  17 C :   -0.058971
  18 C :   -0.013706
  19 C :   -0.013576
  20 C :   -0.013731
  21 C :   -0.013673
  22 C :   -0.013605
  23 C :   -0.013622
  24 H :    0.087230
  25 H :    0.087217
  26 H :    0.087234
  27 H :    0.087232
  28 H :    0.087242
  29 H :    0.087234

  Mayer bond orders larger than 0.100000
B(  0-C ,  1-C ) :   0.2506 B(  0-C ,  2-C ) :   0.1436 B(  0-C ,  3-C ) :   0.3762
B(  0-C ,  4-C ) :  -0.1574 B(  0-C ,  5-C ) :   0.4523 B(  0-C , 14-C ) :  -0.2282
B(  0-C , 15-C ) :   0.2671 B(  0-C , 16-C ) :  -2.0450 B(  0-C , 17-C ) :  -0.5852
B(  0-C , 18-C ) :   1.2856 B(  0-C , 19-C ) :   0.5787 B(  0-C , 21-C ) :   0.1013
B(  0-C , 22-C ) :  -0.2835 B(  0-C , 24-H ) :   1.3200 B(  1-C ,  2-C ) :   0.2690
B(  1-C ,  3-C ) :  -2.5978 B(  1-C ,  4-C ) :   0.5779 B(  1-C ,  5-C ) :  -0.3192
B(  1-C ,  8-C ) :   0.1329 B(  1-C , 14-C ) :   0.2447 B(  1-C , 16-C ) :   0.2662
B(  1-C , 18-C ) :  -0.2170 B(  1-C , 19-C ) :  -0.6359 B(  1-C , 20-C ) :   0.5442
B(  1-C , 21-C ) :  -0.4808 B(  1-C , 22-C ) :   0.2346 B(  1-C , 23-C ) :   1.3062
B(  1-C , 25-H ) :   1.4380 B(  2-C ,  3-C ) :   0.5931 B(  2-C ,  4-C ) :  -0.3140
B(  2-C ,  5-C ) :   0.3090 B(  2-C ,  7-C ) :   0.2404 B(  2-C ,  8-C ) :  -1.2295
B(  2-C ,  9-C ) :   0.3738 B(  2-C , 10-C ) :   0.1456 B(  2-C , 11-C ) :   1.3416
B(  2-C , 12-C ) :  -0.6560 B(  2-C , 13-C ) :   0.2086 B(  2-C , 14-C ) :  -0.1333
B(  2-C , 16-C ) :  -0.2336 B(  2-C , 17-C ) :   0.1581 B(  2-C , 18-C ) :  -1.2952
B(  2-C , 19-C ) :   1.7298 B(  2-C , 20-C ) :  -1.1522 B(  2-C , 21-C ) :  -1.0447
B(  2-C , 23-C ) :  -1.1787 B(  2-C , 24-H ) :  -0.1342 B(  2-C , 25-H ) :  -0.7326
B(  3-C ,  4-C ) :  -0.1475 B(  3-C ,  6-C ) :   0.4492 B(  3-C ,  7-C ) :  -0.1040
B(  3-C ,  8-C ) :   0.6780 B(  3-C , 11-C ) :   0.4720 B(  3-C , 12-C ) :   0.1461
B(  3-C , 14-C ) :  -0.2203 B(  3-C , 16-C ) :   0.1173 B(  3-C , 18-C ) :   1.0370
B(  3-C , 19-C ) :  -0.7766 B(  3-C , 20-C ) :  -0.9371 B(  3-C , 21-C ) :   1.7888
B(  3-C , 22-C ) :  -2.2386 B(  3-C , 23-C ) :   0.6970 B(  3-C , 25-H ) :  -0.2349
B(  3-C , 26-H ) :  -0.1083 B(  4-C ,  5-C ) :  -1.2882 B(  4-C ,  6-C ) :  -2.3909
B(  4-C ,  7-C ) :   0.2778 B(  4-C ,  8-C ) :  -1.2343 B(  4-C ,  9-C ) :   0.1886
B(  4-C , 10-C ) :   0.3220 B(  4-C , 11-C ) :  -0.7145 B(  4-C , 12-C ) :  -0.4304
B(  4-C , 14-C ) :   0.3210 B(  4-C , 15-C ) :   0.1744 B(  4-C , 18-C ) :  -1.1913
B(  4-C , 19-C ) :   0.6618 B(  4-C , 20-C ) :   1.5363 B(  4-C , 21-C ) :  -1.6289
B(  4-C , 22-C ) :   4.0065 B(  4-C , 23-C ) :   0.2826 B(  4-C , 25-H ) :  -0.1348
B(  4-C , 26-H ) :  -0.1958 B(  5-C ,  6-C ) :   0.3231 B(  5-C ,  7-C ) :   0.1526
B(  5-C ,  8-C ) :   2.2160 B(  5-C ,  9-C ) :  -0.6802 B(  5-C , 10-C ) :  -0.3236
B(  5-C , 11-C ) :   0.3907 B(  5-C , 12-C ) :   0.3868 B(  5-C , 15-C ) :   0.2153
B(  5-C , 16-C ) :  -0.1272 B(  5-C , 17-C ) :  -0.2404 B(  5-C , 19-C ) :  -0.5404
B(  5-C , 20-C ) :  -0.7665 B(  5-C , 22-C ) :  -2.1881 B(  5-C , 23-C ) :  -0.7365
B(  5-C , 26-H ) :  -0.5672 B(  5-C , 27-H ) :  -0.1110 B(  6-C ,  7-C ) :   0.1673
B(  6-C ,  9-C ) :   0.4486 B(  6-C , 10-C ) :  -0.2527 B(  6-C , 11-C ) :   0.3356
B(  6-C , 14-C ) :  -0.1109 B(  6-C , 18-C ) :  -0.2894 B(  6-C , 19-C ) :   0.4050
B(  6-C , 20-C ) :  -0.4755 B(  6-C , 21-C ) :  -0.2635 B(  6-C , 22-C ) :   0.8151
B(  6-C , 23-C ) :   0.3114 B(  6-C , 26-H ) :   1.3502 B(  7-C ,  8-C ) :  -0.6777
B(  7-C ,  9-C ) :  -1.8252 B(  7-C , 10-C ) :   0.2592 B(  7-C , 11-C ) :   0.2097
B(  7-C , 14-C ) :   0.1667 B(  7-C , 17-C ) :  -0.1163 B(  7-C , 20-C ) :   0.2533
B(  7-C , 21-C ) :   1.0880 B(  7-C , 22-C ) :   0.1105 B(  7-C , 23-C ) :  -0.1225
B(  7-C , 27-H ) :   1.3432 B(  8-C ,  9-C ) :   0.4058 B(  8-C , 10-C ) :  -0.3126
B(  8-C , 11-C ) :  -1.5707 B(  8-C , 12-C ) :   0.5993 B(  8-C , 14-C ) :   0.2988
B(  8-C , 17-C ) :   0.2994 B(  8-C , 18-C ) :  -1.0920 B(  8-C , 19-C ) :   1.2346
B(  8-C , 20-C ) :  -0.8086 B(  8-C , 22-C ) :   0.1650 B(  8-C , 23-C ) :   0.1869
B(  8-C , 26-H ) :  -0.1047 B(  8-C , 27-H ) :  -0.5804 B(  9-C , 10-C ) :  -0.9403
B(  9-C , 11-C ) :   1.2490 B(  9-C , 12-C ) :   0.9336 B(  9-C , 14-C ) :  -0.1747
B(  9-C , 17-C ) :   0.2114 B(  9-C , 18-C ) :  -0.1007 B(  9-C , 19-C ) :  -0.3381
B(  9-C , 20-C ) :  -1.6442 B(  9-C , 21-C ) :   1.4397 B(  9-C , 22-C ) :  -0.7664
B(  9-C , 23-C ) :   0.1594 B(  9-C , 27-H ) :  -0.1890 B(  9-C , 28-H ) :  -0.1179
B( 10-C , 11-C ) :  -1.0584 B( 10-C , 12-C ) :  -2.7995 B( 10-C , 13-C ) :   0.2200
B( 10-C , 14-C ) :  -0.3456 B( 10-C , 17-C ) :  -0.4210 B( 10-C , 18-C ) :   1.0106
B( 10-C , 19-C ) :  -1.1170 B( 10-C , 20-C ) :   4.2254 B( 10-C , 21-C ) :   0.2060
B( 10-C , 22-C ) :  -0.7415 B( 10-C , 23-C ) :   0.1497 B( 10-C , 27-H ) :  -0.1227
B( 10-C , 28-H ) :  -0.2111 B( 11-C , 12-C ) :  -0.7985 B( 11-C , 13-C ) :   0.4003
B( 11-C , 14-C ) :   0.6380 B( 11-C , 15-C ) :   0.1933 B( 11-C , 16-C ) :   0.1808
B( 11-C , 17-C ) :  -0.5052 B( 11-C , 18-C ) :  -0.4252 B( 11-C , 19-C ) :   0.1069
B( 11-C , 20-C ) :  -4.1069 B( 11-C , 21-C ) :  -1.0675 B( 11-C , 22-C ) :   0.3410
B( 11-C , 23-C ) :  -1.4320 B( 11-C , 28-H ) :  -0.5852 B( 11-C , 29-H ) :  -0.1213
B( 12-C , 13-C ) :   0.1522 B( 12-C , 14-C ) :  -0.1474 B( 12-C , 15-C ) :   0.4248
B( 12-C , 16-C ) :  -0.1139 B( 12-C , 17-C ) :   0.6279 B( 12-C , 18-C ) :  -0.2229
B( 12-C , 20-C ) :   0.6273 B( 12-C , 21-C ) :   0.5492 B( 12-C , 23-C ) :   0.4250
B( 12-C , 28-H ) :   1.3455 B( 13-C , 14-C ) :   0.4866 B( 13-C , 15-C ) :  -2.2545
B( 13-C , 16-C ) :   0.4591 B( 13-C , 18-C ) :   0.1690 B( 13-C , 19-C ) :   0.7034
B( 13-C , 20-C ) :  -0.4121 B( 13-C , 21-C ) :  -0.4798 B( 13-C , 22-C ) :   0.2362
B( 13-C , 23-C ) :  -0.3116 B( 13-C , 29-H ) :   1.3469 B( 14-C , 15-C ) :  -0.1031
B( 14-C , 16-C ) :   0.2986 B( 14-C , 18-C ) :  -1.4885 B( 14-C , 19-C ) :  -0.1352
B( 14-C , 20-C ) :   1.9322 B( 14-C , 21-C ) :  -0.7126 B( 14-C , 22-C ) :  -0.6431
B( 14-C , 23-C ) :   1.2004 B( 14-C , 28-H ) :  -0.1165 B( 14-C , 29-H ) :  -0.5842
B( 15-C , 18-C ) :  -0.8186 B( 15-C , 19-C ) :   1.5992 B( 15-C , 22-C ) :  -0.4451
B( 15-C , 23-C ) :   0.5297 B( 15-C , 24-H ) :  -0.1065 B( 15-C , 29-H ) :  -0.2462
B( 16-C , 17-C ) :  -0.5383 B( 16-C , 18-C ) :   2.3570 B( 16-C , 19-C ) :  -0.1747
B( 16-C , 20-C ) :  -0.3771 B( 16-C , 21-C ) :  -0.1756 B( 16-C , 22-C ) :   0.8327
B( 16-C , 23-C ) :  -1.1193 B( 16-C , 24-H ) :  -0.2237 B( 17-C , 19-C ) :  -1.3336
B( 17-C , 20-C ) :   0.6968 B( 17-C , 21-C ) :  -0.2365 B( 17-C , 22-C ) :  -0.3245
B( 17-C , 23-C ) :   0.9477 B( 17-C , 24-H ) :  -0.5642 B( 17-C , 25-H ) :  -0.1129
B( 18-C , 19-C ) :   4.1999 B( 18-C , 20-C ) :  -0.5467 B( 18-C , 21-C ) :   2.8016
B( 18-C , 22-C ) :  -0.6392 B( 18-C , 23-C ) :   3.8121 B( 18-C , 24-H ) :   0.5162
B( 19-C , 20-C ) :   1.8290 B( 19-C , 21-C ) :  -0.3018 B( 19-C , 22-C ) :   0.4342
B( 19-C , 23-C ) :  -1.7436 B( 19-C , 29-H ) :   0.5339 B( 20-C , 21-C ) :   2.6996
B( 20-C , 22-C ) :   1.5506 B( 20-C , 23-C ) :   0.2507 B( 20-C , 28-H ) :   0.5096
B( 21-C , 22-C ) :   2.0041 B( 21-C , 23-C ) :   0.3431 B( 21-C , 27-H ) :   0.4988
B( 22-C , 23-C ) :   4.4177 B( 22-C , 26-H ) :   0.4940 B( 23-C , 25-H ) :   0.6231

-----------------------------------------------------------------------------
         ABSORPTION SPECTRUM VIA TRANSITION ELECTRIC DIPOLE MOMENTS
-----------------------------------------------------------------------------
State   Energy    Wavelength  fosc         T2        TX        TY        TZ
        (cm-1)      (nm)                 (au**2)    (au)      (au)      (au)
-----------------------------------------------------------------------------
   1   22811.1    438.4   0.000000000   0.00000   0.00000  -0.00000   0.00001
   2   22838.4    437.9   0.000000003   0.00000   0.00000  -0.00000   0.00022
   3   22841.8    437.8   0.000000000   0.00000  -0.00000  -0.00000   0.00006
   4   24163.7    413.8   0.001225920   0.01670   0.00001  -0.00000  -0.12924
   5   24275.6    411.9   0.000000002   0.00000  -0.00000   0.00000   0.00014
   6   24277.3    411.9   0.000000057   0.00000  -0.00000   0.00000  -0.00088
   7   26484.9    377.6   0.000000012   0.00000   0.00036   0.00012  -0.00000
   8   28066.5    356.3   0.000000056   0.00000  -0.00018   0.00079  -0.00000
   9   33264.0    300.6   0.339548995   3.36049  -1.83312   0.01263  -0.00008
  10   33264.6    300.6   0.339779387   3.36272  -0.01262  -1.83373   0.00006
  11   33366.0    299.7   0.000000001   0.00000   0.00003   0.00009  -0.00003
  12   33475.9    298.7   0.000000002   0.00000   0.00003  -0.00001  -0.00012
  13   33479.2    298.7   0.000000001   0.00000   0.00003   0.00007  -0.00002
  14   34425.2    290.5   0.000362527   0.00347   0.00001  -0.00000   0.05888
  15   34570.6    289.3   0.000000000   0.00000   0.00000  -0.00000  -0.00004
  16   34571.3    289.3   0.000000006   0.00000  -0.00001  -0.00000   0.00023
  17   35978.9    277.9   0.000000124   0.00000  -0.00022  -0.00104  -0.00000
  18   36813.9    271.6   0.011556322   0.10334   0.22914  -0.22547   0.00002
  19   36814.3    271.6   0.011514048   0.10296  -0.22622  -0.22757  -0.00000
  20   36871.1    271.2   0.000002381   0.00002   0.00371   0.00274   0.00000
  21   37018.4    270.1   0.000000750   0.00001  -0.00010   0.00258  -0.00000
  22   37781.2    264.7   0.000000008   0.00000  -0.00001   0.00003   0.00027
  23   37784.8    264.7   0.000000131   0.00000  -0.00005  -0.00001  -0.00107
  24   37810.6    264.5   0.000012507   0.00011   0.00013  -0.00005   0.01043
  25   38005.4    263.1   0.000000253   0.00000  -0.00047   0.00035   0.00136
  26   38005.7    263.1   0.000000614   0.00001   0.00034   0.00049   0.00223
  27   38021.4    263.0   0.003558551   0.03081  -0.00072   0.00027  -0.17553
  28   38046.8    262.8   0.234044627   2.02515  -1.42204   0.05441   0.00003
  29   38047.6    262.8   0.234087793   2.02548  -0.05448  -1.42215   0.00001
  30   38108.1    262.4   0.000000102   0.00000  -0.00024  -0.00066  -0.00062
  31   38277.4    261.3   0.000006240   0.00005  -0.00732  -0.00020   0.00000
  32   38391.3    260.5   0.024294537   0.20833  -0.00113   0.45643  -0.00001
  33   38392.6    260.5   0.024066060   0.20636   0.45427   0.00072   0.00002
  34   38632.1    258.9   0.000000006   0.00000  -0.00003   0.00000  -0.00022
  35   38633.9    258.8   0.000000000   0.00000  -0.00001   0.00003   0.00003
  36   38695.0    258.4   0.007112835   0.06052  -0.24504   0.02167  -0.00001
  37   38696.7    258.4   0.007074604   0.06019  -0.02404  -0.24415   0.00001
  38   38704.2    258.4   0.000137499   0.00117   0.01227  -0.03192   0.00000
  39   39686.5    252.0   0.000000001   0.00000  -0.00000   0.00000   0.00007
  40   39688.9    252.0   0.000000000   0.00000  -0.00000   0.00000   0.00001
  41   39745.7    251.6   0.000000001   0.00000  -0.00000   0.00000   0.00009
  42   39887.1    250.7   0.020731444   0.17111   0.13874   0.38969  -0.00001
  43   39887.5    250.7   0.020657406   0.17050   0.38895  -0.13862   0.00002
  44   41864.5    238.9   0.149593339   1.17637   0.08516   1.08126  -0.00003
  45   41866.5    238.9   0.149963306   1.17922  -1.08255   0.08541  -0.00005
  46   41970.7    238.3   0.000000705   0.00001  -0.00224   0.00071  -0.00000
  47   42307.6    236.4   0.000000249   0.00000   0.00015   0.00138   0.00000
  48   43369.4    230.6   0.000040177   0.00030   0.00001  -0.01746   0.00000
  49   43372.4    230.6   0.000030225   0.00023   0.01514   0.00041   0.00000
  50   45521.0    219.7   0.005621101   0.04065   0.20162  -0.00128   0.00001
  51   45521.6    219.7   0.005653571   0.04089  -0.00118  -0.20220   0.00001
  52   46543.5    214.9   0.000000147   0.00000   0.00000   0.00000  -0.00102
  53   46558.9    214.8   0.000000000   0.00000   0.00000  -0.00000   0.00005
  54   46699.3    214.1   0.000000013   0.00000  -0.00029   0.00007  -0.00000
  55   47582.4    210.2   0.000000051   0.00000   0.00001   0.00001   0.00059
  56   47867.2    208.9   0.000000595   0.00000   0.00001   0.00001   0.00202
  57   47868.3    208.9   0.000000046   0.00000   0.00000  -0.00001   0.00056
  58   48033.8    208.2   0.022653907   0.15526  -0.17082  -0.35508   0.00001
  59   48034.6    208.2   0.022668181   0.15536  -0.35540   0.17044  -0.00002
  60   48483.7    206.3   0.004743327   0.03221  -0.00000   0.00001   0.17947
  61   48518.6    206.1   0.000001164   0.00001   0.00000  -0.00001  -0.00281
  62   48536.4    206.0   0.001855840   0.01259  -0.00000   0.00001   0.11220
  63   48649.3    205.6   0.000001575   0.00001  -0.00000   0.00000   0.00326
  64   48683.5    205.4   0.000090786   0.00061  -0.00001   0.00000   0.02478
  65   48689.3    205.4   0.000000635   0.00000   0.00000   0.00001  -0.00207
  66   48832.4    204.8   0.000000029   0.00000  -0.00001   0.00000   0.00044
  67   48960.8    204.2   0.004365302   0.02935   0.00003  -0.00002  -0.17133
  68   49069.7    203.8   0.000000009   0.00000  -0.00002  -0.00000   0.00024
  69   49070.7    203.8   0.000000027   0.00000   0.00001  -0.00001   0.00043
  70   49649.4    201.4   0.000000751   0.00000   0.00095  -0.00202   0.00000
  71   50376.0    198.5   0.000000000   0.00000   0.00000  -0.00000   0.00000
  72   50376.0    198.5   0.000000000   0.00000   0.00000  -0.00000  -0.00000
  73   50376.0    198.5   0.000000000   0.00000   0.00000   0.00000   0.00000
  74   50376.0    198.5   0.000000000   0.00000   0.00000  -0.00000  -0.00000
  75   50376.8    198.5   0.000000000   0.00000   0.00000  -0.00000   0.00000
  76   50376.8    198.5   0.000000000   0.00000   0.00000  -0.00000   0.00000
  77   50376.8    198.5   0.000000000   0.00000   0.00000   0.00000  -0.00000
  78   50376.8    198.5   0.000000000   0.00000   0.00000  -0.00000  -0.00000
  79   50452.4    198.2   0.000000028   0.00000  -0.00001   0.00002  -0.00042
  80   50475.4    198.1   0.000000000   0.00000   0.00003  -0.00001   0.00003
  81   50704.8    197.2   0.038047390   0.24703   0.07302  -0.49163   0.00002
  82   50705.1    197.2   0.037644425   0.24441   0.48889   0.07349   0.00002
  83   50812.6    196.8   0.000000020   0.00000  -0.00010  -0.00001   0.00034
  84   50814.0    196.8   0.000000016   0.00000  -0.00014  -0.00000  -0.00029
  85   51163.3    195.5   0.280627211   1.80570   1.29911  -0.34355   0.00013
  86   51165.2    195.4   0.281368749   1.81041   0.34269   1.30114  -0.00001
  87   51194.5    195.3   0.002440536   0.01569   0.00058  -0.00001  -0.12527
  88   52590.7    190.1   0.000171569   0.00107   0.00001   0.00003   0.03277
  89   52592.4    190.1   0.000001006   0.00001  -0.00002  -0.00003  -0.00251
  90   52623.9    190.0   0.002451899   0.01534  -0.00003   0.00011  -0.12385
  91   52648.8    189.9   0.000140219   0.00088   0.00007  -0.00009  -0.02961
  92   52673.8    189.8   0.000008285   0.00005  -0.00007   0.00006  -0.00720
  93   52689.2    189.8   0.000081861   0.00051   0.00001  -0.00002   0.02262
  94   52738.5    189.6   0.381453528   2.38117  -0.53629  -1.44691   0.00005
  95   52739.3    189.6   0.380320015   2.37405   1.44471  -0.53561   0.00010
  96   52754.5    189.6   0.000725226   0.00453  -0.00031   0.00102   0.06727
  97   52870.6    189.1   0.000058340   0.00036   0.00011  -0.00016  -0.01906
  98   53147.0    188.2   0.001200535   0.00744  -0.00002  -0.00003   0.08624
  99   53296.3    187.6   0.000001157   0.00001   0.00000  -0.00000   0.00267
 100   54204.3    184.5   0.335264577   2.03624  -0.18233   1.41527  -0.00005
 101   54207.0    184.5   0.333553377   2.02575   1.41157   0.18226   0.00006
 102   54587.3    183.2   0.000020772   0.00013   0.00147  -0.01110  -0.00000
 103   54933.7    182.0   0.000008293   0.00005   0.00661   0.00246   0.00001
 104   54951.8    182.0   0.053731133   0.32190  -0.56672  -0.02706  -0.00002
 105   54957.0    182.0   0.052358535   0.31365  -0.02672   0.55940  -0.00002
 106   55476.7    180.3   0.003402139   0.02019   0.14196   0.00602   0.00002
 107   55486.7    180.2   0.003177105   0.01885  -0.00650   0.13714  -0.00002
 108   55667.3    179.6   0.000000071   0.00000  -0.00061  -0.00018  -0.00011
 109   55670.1    179.6   0.001016754   0.00601  -0.00010  -0.00004   0.07754
 110   55716.1    179.5   0.000176109   0.00104   0.03209  -0.00330  -0.00004
 111   55719.7    179.5   0.000225227   0.00133  -0.00165  -0.03644  -0.00007
 112   55886.1    178.9   0.000373454   0.00220  -0.00013  -0.00012  -0.04690
 113   55976.3    178.6   0.000001174   0.00001   0.00261   0.00028   0.00002
 114   56077.6    178.3   0.055264922   0.32444  -0.56940  -0.01483  -0.00001
 115   56080.9    178.3   0.055434660   0.32542   0.01439  -0.57027   0.00001
 116   56114.6    178.2   0.000034246   0.00020  -0.00009   0.01417   0.00001
 117   56312.1    177.6   0.000010740   0.00006  -0.00010  -0.00008  -0.00792
 118   56362.2    177.4   0.000188127   0.00110  -0.00012   0.00004   0.03315
 119   56680.7    176.4   0.000391731   0.00228   0.04448  -0.01722   0.00000
 120   56704.6    176.4   0.093469475   0.54266   0.73587   0.03408   0.00003
 121   56707.3    176.3   0.095366227   0.55364  -0.03327   0.74333  -0.00003
 122   56727.6    176.3   0.000008635   0.00005   0.00070   0.00095   0.00698
 123   56739.8    176.2   0.000086496   0.00050   0.00030  -0.00011  -0.02240
 124   56743.8    176.2   0.000000553   0.00000   0.00018   0.00001  -0.00178
 125   57039.0    175.3   0.140475171   0.81078  -0.89850   0.05893  -0.00004
 126   57041.6    175.3   0.142074475   0.81997  -0.05825  -0.90365   0.00002
 127   57053.7    175.3   0.000000021   0.00000  -0.00003   0.00021   0.00028
 128   57056.8    175.3   0.000006505   0.00004   0.00001   0.00082  -0.00607
 129   57143.7    175.0   0.003279771   0.01890   0.00000  -0.00003  -0.13746
 130   57233.9    174.7   0.000000003   0.00000   0.00002  -0.00002   0.00013
 131   57248.8    174.7   0.000014186   0.00008   0.00003  -0.00003   0.00903
 132   57555.1    173.7   0.000000010   0.00000   0.00002   0.00002  -0.00024
 133   57557.8    173.7   0.000000434   0.00000   0.00003  -0.00008   0.00157
 134   57629.9    173.5   0.000005369   0.00003   0.00000  -0.00000  -0.00554
 135   57645.9    173.5   0.000004038   0.00002   0.00479   0.00040   0.00001
 136   57712.5    173.3   0.000330481   0.00189  -0.00001   0.00000  -0.04342
 137   58127.3    172.0   0.489431259   2.77196  -0.23768  -1.64787   0.00011
 138   58128.5    172.0   0.492105233   2.78705   1.65216  -0.23964   0.00008
 139   58177.2    171.9   0.000999638   0.00566   0.00079   0.00103   0.07520
 140   58291.8    171.6   0.010379788   0.05862   0.00010  -0.00022  -0.24212
 141   58373.5    171.3   0.004455140   0.02513  -0.00038   0.00001   0.15851
 142   58414.9    171.2   0.012978230   0.07314  -0.00012   0.00006  -0.27045
 143   58812.2    170.0   0.000000791   0.00000  -0.00001   0.00002   0.00210
 144   58819.6    170.0   0.000130872   0.00073  -0.00002  -0.00001  -0.02706
 145   58967.8    169.6   0.000012148   0.00007   0.00790   0.00233  -0.00001
 146   59166.5    169.0   0.000005708   0.00003  -0.00462  -0.00322  -0.00001
 147   59243.6    168.8   0.011023726   0.06126  -0.19661   0.15035   0.00001
 148   59245.0    168.8   0.011436750   0.06355  -0.14608  -0.20546   0.00000
 149   59269.3    168.7   0.000006302   0.00004   0.00000   0.00010   0.00592
 150   59809.4    167.2   0.612424433   3.37100  -1.82361  -0.21315  -0.00008
 151   59818.1    167.2   0.608070406   3.34654   0.21392  -1.81681   0.00007
 152   60249.4    166.0   0.000105120   0.00057  -0.00007   0.00005   0.02397
 153   60278.3    165.9   0.000509046   0.00278  -0.00004  -0.00001   0.05273
 154   60395.6    165.6   0.000000000   0.00000   0.00000  -0.00000  -0.00000
 155   60395.6    165.6   0.000000000   0.00000   0.00000  -0.00000  -0.00000
 156   60395.6    165.6   0.000000000   0.00000  -0.00000   0.00000   0.00000
 157   60395.6    165.6   0.000000000   0.00000  -0.00000  -0.00000   0.00000
 158   60397.0    165.6   0.000000000   0.00000  -0.00000   0.00000  -0.00000
 159   60397.0    165.6   0.000000000   0.00000   0.00000   0.00000   0.00000
 160   60397.0    165.6   0.000000000   0.00000  -0.00000  -0.00000   0.00000
 161   60397.0    165.6   0.000000000   0.00000  -0.00000   0.00000  -0.00000
 162   60433.7    165.5   0.000563973   0.00307   0.02825   0.04769  -0.00002
 163   60620.7    165.0   0.000461469   0.00251  -0.00003  -0.00001   0.05006
 164   60658.8    164.9   0.007966489   0.04324   0.00017  -0.00005  -0.20793
 165   60838.2    164.4   0.000001976   0.00001  -0.00063   0.00002  -0.00321
 166   60853.2    164.3   0.017477635   0.09455  -0.24777   0.18211  -0.00010
 167   60857.1    164.3   0.017009288   0.09201  -0.17685  -0.24645  -0.00003
 168   61281.6    163.2   0.000008509   0.00005   0.00007   0.00676  -0.00001
 169   61399.4    162.9   0.000039393   0.00021   0.00536  -0.01351  -0.00001
 170   61645.8    162.2   0.338240424   1.80633   0.40271   1.28225  -0.00001
 171   61657.2    162.2   0.368842825   1.96940   1.33956  -0.41830   0.00007
 172   61886.1    161.6   0.002444465   0.01300  -0.04065  -0.10654   0.00002
 173   61993.2    161.3   0.000103482   0.00055  -0.01104   0.02068   0.00001
 174   62050.0    161.2   0.010010073   0.05311   0.19337   0.12537  -0.00003
 175   62059.3    161.1   0.065174078   0.34574  -0.08945   0.58115  -0.00003
 176   62062.7    161.1   0.052985359   0.28106  -0.52601  -0.06614  -0.00004
 177   62328.1    160.4   0.000000000   0.00000  -0.00000  -0.00000   0.00000
 178   62328.1    160.4   0.000000000   0.00000   0.00000   0.00000   0.00000
 179   62328.1    160.4   0.000000000   0.00000  -0.00000   0.00000  -0.00000
 180   62328.1    160.4   0.000000000   0.00000  -0.00000  -0.00000   0.00000
 181   62328.3    160.4   0.000000000   0.00000  -0.00000  -0.00000   0.00000
 182   62328.3    160.4   0.000000000   0.00000  -0.00000  -0.00000  -0.00000
 183   62328.3    160.4   0.000000000   0.00000   0.00000  -0.00000  -0.00000
 184   62328.3    160.4   0.000000000   0.00000  -0.00000  -0.00000  -0.00000
 185   62336.2    160.4   0.268930056   1.42028  -0.11835  -1.18586   0.00004
 186   62383.2    160.3   0.234484887   1.23744  -1.10905   0.08623  -0.00013
 187   62384.2    160.3   0.000039546   0.00021  -0.01142   0.00070   0.00882
 188   62685.1    159.5   0.000008735   0.00005  -0.00009  -0.00001  -0.00677
 189   62741.3    159.4   0.000062227   0.00033  -0.00012   0.00002   0.01807
 190   62894.2    159.0   0.000125045   0.00065   0.00001  -0.00002   0.02558
 191   62923.1    158.9   0.000000000   0.00000  -0.00000  -0.00000  -0.00000
 192   62923.1    158.9   0.000000000   0.00000  -0.00000  -0.00000  -0.00000
 193   62923.1    158.9   0.000000000   0.00000   0.00000   0.00000  -0.00000
 194   62923.1    158.9   0.000000000   0.00000   0.00000  -0.00000  -0.00000
 195   62937.2    158.9   0.059979949   0.31374  -0.04681   0.55817  -0.00001
 196   62948.3    158.9   0.060221255   0.31495  -0.55866  -0.05332   0.00014

Dispersion correction           -0.096521331
FINAL SINGLE POINT ENERGY      -917.533147446072

DIPOLE MOMENT
-------------
                                X             Y             Z
Electronic contribution:      0.00050       0.00026       0.00000
Nuclear contribution   :     -0.00025      -0.00015      -0.00000
                        -----------------------------------------
Total Dipole Moment    :      0.00025       0.00012      -0.00000
                        -----------------------------------------
Magnitude (a.u.)       :      0.00028
Magnitude (Debye)      :      0.00070

Rotational constants in cm-1:     0.011741     0.011740     0.005870
Rotational constants in MHz :   351.993101   351.966183   175.989821

                             ****ORCA TERMINATED NORMALLY****
TOTAL RUN TIME: 0 days 4 hours 11 minutes 9 seconds 205 msec
