                         Program Version 5.0.4 -  RELEASE  -
|  1> !B3LYP 6-311+G**  D4
|  2>
|  3> %maxcore 5000
|  4> %pal
|  5> nprocs 7
|  6> end
|  7>
|  8> %TDDFT
|  9>   NROOTS 1000
| 10>   END
| 11>
| 12> %scf
| 13> stabperform true
| 14> STABDTol 1e-5
| 15> STABRTol 1e-5
| 16> end
| 17>
| 18> * XYZ 0 1
| 19>   C   0.78369955260720     -2.35504525264630     -0.00023808357704
| 20>   C   -0.78369637694139     -2.35504641388410      0.00013378256671
| 21>   C   -1.17361698941675     -0.88811076846892     -0.00002147923963
| 22>   C   -2.39198214844659     -0.25250883760890     -0.00003207291595
| 23>   C   -2.42297036751965      1.16857143938592     -0.00007087132505
| 24>   C   -1.27358511398494      1.93256282447503     -0.00008320754857
| 25>   C   -0.00000100035964      1.30453082628835     -0.00007880657579
| 26>   C   1.27358206641138      1.93256459362965     -0.00008405118965
| 27>   C   2.42296848500334      1.16857484634030     -0.00008458181567
| 28>   C   2.39198225835596     -0.25250541197616     -0.00010224566366
| 29>   C   1.17361792548015     -0.88810898615641     -0.00010358428754
| 30>   C   -0.00000005714253     -0.10715555989346     -0.00006810843805
| 31>   H   1.18365250229207     -2.87326778522408      0.87637029015427
| 32>   H   1.18317455131464     -2.87286652771657     -0.87730709384332
| 33>   H   -1.18364854332015     -2.87328219574537     -0.87646710977918
| 34>   H   -1.18317046077847     -2.87285578192771      0.87721026304997
| 35>   H   -3.32450522341235     -0.80883469733519      0.00000207446805
| 36>   H   -3.38773566365317      1.66669394019372     -0.00008134479695
| 37>   H   -1.34018346522423      3.01645963906894     -0.00009999316040
| 38>   H   1.34017894706046      3.01646151893004     -0.00008457956324
| 39>   H   3.38773307715323      1.66669871259211     -0.00008095604207
| 40>   H   3.32450604452143     -0.80883012232088     -0.00012824047726
| 41> **                         ****END OF INPUT****

CARTESIAN COORDINATES (ANGSTROEM)
---------------------------------
  C      0.783700   -2.355045   -0.000238
  C     -0.783696   -2.355046    0.000134
  C     -1.173617   -0.888111   -0.000021
  C     -2.391982   -0.252509   -0.000032
  C     -2.422970    1.168571   -0.000071
  C     -1.273585    1.932563   -0.000083
  C     -0.000001    1.304531   -0.000079
  C      1.273582    1.932565   -0.000084
  C      2.422968    1.168575   -0.000085
  C      2.391982   -0.252505   -0.000102
  C      1.173618   -0.888109   -0.000104
  C     -0.000000   -0.107156   -0.000068
  H      1.183653   -2.873268    0.876370
  H      1.183175   -2.872867   -0.877307
  H     -1.183649   -2.873282   -0.876467
  H     -1.183170   -2.872856    0.877210
  H     -3.324505   -0.808835    0.000002
  H     -3.387736    1.666694   -0.000081
  H     -1.340183    3.016460   -0.000100
  H      1.340179    3.016462   -0.000085
  H      3.387733    1.666699   -0.000081
  H      3.324506   -0.808830   -0.000128

 Total Charge           Charge          ....    0
 Multiplicity           Mult            ....    1
 Number of Electrons    NEL             ....   82
 Basis Dimension        Dim             ....  324

ORBITAL ENERGIES
----------------

  NO   OCC          E(Eh)            E(eV)
   0   2.0000     -10.179497      -276.9982
   1   2.0000     -10.178918      -276.9824
   2   2.0000     -10.178862      -276.9809
   3   2.0000     -10.178681      -276.9760
   4   2.0000     -10.178563      -276.9728
   5   2.0000     -10.174212      -276.8544
   6   2.0000     -10.174208      -276.8543
   7   2.0000     -10.170659      -276.7577
   8   2.0000     -10.170643      -276.7573
   9   2.0000     -10.170592      -276.7559
  10   2.0000     -10.170585      -276.7557
  11   2.0000     -10.167179      -276.6630
  12   2.0000      -0.888561       -24.1790
  13   2.0000      -0.821301       -22.3487
  14   2.0000      -0.816993       -22.2315
  15   2.0000      -0.741539       -20.1783
  16   2.0000      -0.729496       -19.8506
  17   2.0000      -0.718984       -19.5646
  18   2.0000      -0.648081       -17.6352
  19   2.0000      -0.616390       -16.7728
  20   2.0000      -0.595564       -16.2061
  21   2.0000      -0.574925       -15.6445
  22   2.0000      -0.510855       -13.9011
  23   2.0000      -0.500099       -13.6084
  24   2.0000      -0.482903       -13.1404
  25   2.0000      -0.467111       -12.7107
  26   2.0000      -0.449095       -12.2205
  27   2.0000      -0.433019       -11.7830
  28   2.0000      -0.414815       -11.2877
  29   2.0000      -0.406748       -11.0682
  30   2.0000      -0.395468       -10.7612
  31   2.0000      -0.383272       -10.4294
  32   2.0000      -0.378474       -10.2988
  33   2.0000      -0.358653        -9.7594
  34   2.0000      -0.354808        -9.6548
  35   2.0000      -0.332624        -9.0512
  36   2.0000      -0.331109        -9.0099
  37   2.0000      -0.318482        -8.6663
  38   2.0000      -0.279386        -7.6025
  39   2.0000      -0.245173        -6.6715
  40   2.0000      -0.209627        -5.7042
  41   0.0000      -0.040016        -1.0889
  42   0.0000      -0.018274        -0.4973
  43   0.0000       0.005828         0.1586
  44   0.0000       0.015084         0.4105
  45   0.0000       0.015357         0.4179

MULLIKEN ATOMIC CHARGES
-----------------------
   0 C :   -0.313819
   1 C :   -0.311769
   2 C :    0.406207
   3 C :   -1.521860
   4 C :    0.360414
   5 C :   -0.471616
   6 C :    2.794456
   7 C :   -0.470323
   8 C :    0.359057
   9 C :   -1.517794
  10 C :    0.402815
  11 C :   -1.155343
  12 H :    0.176317
  13 H :    0.176343
  14 H :    0.176320
  15 H :    0.176347
  16 H :    0.121721
  17 H :    0.123397
  18 H :    0.122014
  19 H :    0.122023
  20 H :    0.123401
  21 H :    0.121692
Sum of atomic charges:    0.0000000

LOEWDIN ATOMIC CHARGES
----------------------
   0 C :   -0.060883
   1 C :   -0.060883
   2 C :   -0.070142
   3 C :   -0.070635
   4 C :   -0.051585
   5 C :   -0.054856
   6 C :   -0.074322
   7 C :   -0.054856
   8 C :   -0.051586
   9 C :   -0.070634
  10 C :   -0.070142
  11 C :   -0.072989
  12 H :    0.077322
  13 H :    0.077335
  14 H :    0.077322
  15 H :    0.077335
  16 H :    0.076767
  17 H :    0.072252
  18 H :    0.078080
  19 H :    0.078080
  20 H :    0.072252
  21 H :    0.076767

  Mayer bond orders larger than 0.100000
B(  0-C ,  1-C ) :   0.3223 B(  0-C ,  2-C ) :  -0.1964 B(  0-C ,  3-C ) :  -0.1187
B(  0-C ,  6-C ) :   0.3180 B(  0-C ,  8-C ) :   0.1501 B(  0-C ,  9-C ) :  -0.2914
B(  0-C , 10-C ) :   1.1654 B(  0-C , 11-C ) :  -0.5104 B(  0-C , 12-H ) :   1.0418
B(  0-C , 13-H ) :   1.0410 B(  0-C , 21-H ) :  -0.1114 B(  1-C ,  2-C ) :   1.1667
B(  1-C ,  3-C ) :  -0.2947 B(  1-C ,  4-C ) :   0.1515 B(  1-C ,  5-C ) :  -0.1009
B(  1-C ,  6-C ) :   0.3218 B(  1-C ,  9-C ) :  -0.1190 B(  1-C , 10-C ) :  -0.1992
B(  1-C , 11-C ) :  -0.5112 B(  1-C , 14-H ) :   1.0416 B(  1-C , 15-H ) :   1.0407
B(  1-C , 16-H ) :  -0.1118 B(  2-C ,  3-C ) :  -0.8741 B(  2-C ,  5-C ) :  -0.6491
B(  2-C ,  6-C ) :  -2.0271 B(  2-C ,  7-C ) :   0.6574 B(  2-C ,  8-C ) :  -0.6525
B(  2-C ,  9-C ) :   0.8260 B(  2-C , 10-C ) :   0.4973 B(  2-C , 11-C ) :   1.6795
B(  2-C , 16-H ) :  -0.3893 B(  2-C , 17-H ) :  -0.1643 B(  2-C , 18-H ) :  -0.1100
B(  3-C ,  4-C ) :   0.6502 B(  3-C ,  5-C ) :   0.8448 B(  3-C ,  6-C ) :  -1.5755
B(  3-C , 10-C ) :   0.8328 B(  3-C , 11-C ) :   1.5814 B(  3-C , 16-H ) :   1.2875
B(  3-C , 17-H ) :   0.1450 B(  4-C ,  5-C ) :   1.1700 B(  4-C ,  6-C ) :   0.4351
B(  4-C ,  7-C ) :   0.1133 B(  4-C , 10-C ) :  -0.6553 B(  4-C , 11-C ) :   0.2649
B(  4-C , 17-H ) :   0.8442 B(  5-C ,  6-C ) :  -0.3883 B(  5-C ,  7-C ) :  -1.5488
B(  5-C ,  8-C ) :   0.1127 B(  5-C , 10-C ) :   0.6596 B(  5-C , 11-C ) :   1.6131
B(  5-C , 17-H ) :   0.1348 B(  5-C , 18-H ) :   1.1467 B(  5-C , 19-H ) :  -0.2065
B(  6-C ,  7-C ) :  -0.3842 B(  6-C ,  8-C ) :   0.4327 B(  6-C ,  9-C ) :  -1.5669
B(  6-C , 10-C ) :  -2.0357 B(  6-C , 11-C ) :   1.5648 B(  6-C , 16-H ) :  -0.1302
B(  6-C , 17-H ) :  -0.1916 B(  6-C , 18-H ) :  -0.3998 B(  6-C , 19-H ) :  -0.3998
B(  6-C , 20-H ) :  -0.1913 B(  6-C , 21-H ) :  -0.1298 B(  7-C ,  8-C ) :   1.1720
B(  7-C ,  9-C ) :   0.8387 B(  7-C , 10-C ) :  -0.6455 B(  7-C , 11-C ) :   1.6136
B(  7-C , 18-H ) :  -0.2062 B(  7-C , 19-H ) :   1.1469 B(  7-C , 20-H ) :   0.1344
B(  8-C ,  9-C ) :   0.6541 B(  8-C , 11-C ) :   0.2651 B(  8-C , 20-H ) :   0.8445
B(  9-C , 10-C ) :  -0.8625 B(  9-C , 11-C ) :   1.5755 B(  9-C , 20-H ) :   0.1446
B(  9-C , 21-H ) :   1.2859 B( 10-C , 11-C ) :   1.6805 B( 10-C , 19-H ) :  -0.1101
B( 10-C , 20-H ) :  -0.1637 B( 10-C , 21-H ) :  -0.3875 B( 11-C , 16-H ) :   0.2858
B( 11-C , 17-H ) :   0.1996 B( 11-C , 18-H ) :   0.4985 B( 11-C , 19-H ) :   0.4986
B( 11-C , 20-H ) :   0.1992 B( 11-C , 21-H ) :   0.2848

-----------------------------------------------------------------------------
         ABSORPTION SPECTRUM VIA TRANSITION ELECTRIC DIPOLE MOMENTS
-----------------------------------------------------------------------------
State   Energy    Wavelength  fosc         T2        TX        TY        TZ
        (cm-1)      (nm)                 (au**2)    (au)      (au)      (au)
-----------------------------------------------------------------------------
   1   35216.0    284.0   0.008783578   0.08211  -0.28655  -0.00001  -0.00003
   2   35501.0    281.7   0.106175287   0.98460  -0.00000   0.99227  -0.00001
   3   41555.9    240.6   0.000000000   0.00000  -0.00000   0.00002   0.00001
   4   43213.9    231.4   0.013395182   0.10205  -0.31945  -0.00000  -0.00005
   5   44033.9    227.1   0.000016315   0.00012   0.00006   0.00008   0.01104
   6   44039.8    227.1   0.000438810   0.00328  -0.00028   0.00002  -0.05727
   7   47783.1    209.3   0.000000019   0.00000   0.00000  -0.00010  -0.00035
   8   47843.0    209.0   0.009086394   0.06252  -0.00181   0.00000   0.25004
   9   48484.7    206.3   0.745702248   5.06333  -2.25018   0.00007  -0.00032
  10   48569.5    205.9   0.081042210   0.54932   0.00021   0.74116  -0.00001
  11   49444.1    202.2   0.012867514   0.08568  -0.00076   0.00001   0.29270
  12   49717.9    201.1   0.000000003   0.00000   0.00002   0.00013  -0.00002
  13   49908.2    200.4   0.676882205   4.46496   2.11304  -0.00000  -0.00003
  14   50466.9    198.1   0.032718828   0.21344  -0.46199  -0.00003   0.00004
  15   50533.8    197.9   0.163141953   1.06282   0.00002   1.03093  -0.00001
  16   51659.2    193.6   0.000000007   0.00000   0.00000  -0.00017  -0.00012
  17   52128.5    191.8   0.000280464   0.00177  -0.00062  -0.00000   0.04208
  18   53468.6    187.0   0.007048971   0.04340   0.00025   0.00001  -0.20833
  19   53498.7    186.9   0.000007633   0.00005  -0.00001   0.00007   0.00685
  20   53927.8    185.4   0.006409490   0.03913  -0.00001   0.19781   0.00001
  21   54503.2    183.5   0.006982982   0.04218   0.00002   0.20537   0.00000
  22   54786.2    182.5   0.000000001   0.00000   0.00001  -0.00008  -0.00002
  23   54911.1    182.1   0.000384866   0.00231   0.00006  -0.00001   0.04804
  24   55571.5    179.9   0.004559540   0.02701   0.00015  -0.00000  -0.16435
  25   55806.2    179.2   0.000000001   0.00000   0.00000   0.00006   0.00007
  26   56878.4    175.8   0.006041128   0.03497   0.00001  -0.18699   0.00001
  27   56964.5    175.5   0.004147400   0.02397   0.00057   0.00000   0.15482
  28   57379.1    174.3   0.051837136   0.29741   0.54536   0.00000  -0.00027
  29   57556.0    173.7   0.002782818   0.01592  -0.00056  -0.00000  -0.12616
  30   57853.8    172.8   0.000185710   0.00106  -0.00000  -0.03251   0.00000
  31   58068.7    172.2   0.000000029   0.00000   0.00000  -0.00040   0.00007
  32   59270.7    168.7   0.001817616   0.01010  -0.00012   0.00000   0.10048
  33   59365.3    168.4   0.001275774   0.00707  -0.00005  -0.00000   0.08411
  34   59673.6    167.6   0.000000041   0.00000  -0.00000   0.00039   0.00027
  35   59725.5    167.4   0.000592220   0.00326  -0.00010  -0.00000   0.05713
  36   59837.9    167.1   0.000000001   0.00000   0.00001  -0.00006  -0.00000
  37   60473.4    165.4   0.005460207   0.02972   0.00004   0.00003  -0.17241
  38   60831.4    164.4   0.013842775   0.07492  -0.27371  -0.00008   0.00000
  39   60926.2    164.1   0.002057432   0.01112   0.00034  -0.00002   0.10544
  40   61139.4    163.6   0.602890026   3.24633   0.00002  -1.80176   0.00001
  41   61276.5    163.2   0.000003885   0.00002  -0.00001   0.00135   0.00437
  42   61296.5    163.1   0.001496481   0.00804  -0.00001   0.00006  -0.08965
  43   61513.1    162.6   0.000000013   0.00000   0.00000   0.00019   0.00018
  44   61731.6    162.0   0.000000079   0.00000   0.00000  -0.00065  -0.00005
  45   62546.8    159.9   0.006041128   0.03180  -0.17832  -0.00000   0.00004
  46   63166.1    158.3   0.166891931   0.86981   0.00000  -0.93264   0.00001
  47   63283.2    158.0   0.008688893   0.04520   0.00003   0.00000   0.21261
  48   63353.3    157.8   0.000000013   0.00000   0.00000  -0.00005   0.00026
  49   63794.2    156.8   0.069277808   0.35751  -0.59792  -0.00000  -0.00000
  50   64626.0    154.7   0.244833195   1.24721   0.00001  -1.11678   0.00001
  51   65018.3    153.8   0.001451220   0.00735   0.00008  -0.00000  -0.08572
  52   65122.7    153.6   0.000052529   0.00027   0.00001  -0.01630   0.00004
  53   65124.1    153.6   0.010610870   0.05364  -0.00000  -0.23160   0.00000
  54   65749.7    152.1   0.000000001   0.00000  -0.00000  -0.00005  -0.00003
  55   66047.2    151.4   0.002192533   0.01093   0.00035  -0.00000  -0.10454
  56   66833.2    149.6   0.000000010   0.00000  -0.00001   0.00010  -0.00019
  57   66840.7    149.6   0.000467948   0.00230   0.04801  -0.00000   0.00001
  58   66963.1    149.3   0.000137043   0.00067   0.00035   0.00000   0.02595
  59   67059.0    149.1   0.058418063   0.28679  -0.53553  -0.00001  -0.00004
  60   67203.3    148.8   0.000069657   0.00034  -0.00017  -0.00000  -0.01847
  61   67295.4    148.6   0.000000067   0.00000   0.00001  -0.00002  -0.00057
  62   67434.5    148.3   0.029803700   0.14550  -0.00017   0.00005  -0.38144
  63   67449.6    148.3   0.000354565   0.00173  -0.00002   0.04160   0.00051
  64   67970.0    147.1   0.011731581   0.05682  -0.23837   0.00001   0.00005
  65   68011.8    147.0   0.007567488   0.03663   0.00008  -0.00001  -0.19139
  66   68078.4    146.9   0.000001992   0.00001   0.00000   0.00008   0.00310
  67   68383.4    146.2   0.063720935   0.30677  -0.00005   0.55386  -0.00001
  68   68641.6    145.7   0.007260253   0.03482   0.18660   0.00010  -0.00003
  69   68758.4    145.4   0.000000004   0.00000   0.00000   0.00014   0.00001
  70   68790.3    145.4   0.000193287   0.00093   0.03041   0.00003   0.00002
  71   69014.0    144.9   0.000000035   0.00000   0.00001  -0.00018  -0.00037
  72   69030.3    144.9   0.000016814   0.00008   0.00006   0.00001  -0.00895
  73   69234.4    144.4   0.000000239   0.00000   0.00000  -0.00002   0.00107
  74   69355.0    144.2   0.000228019   0.00108  -0.00005   0.00000   0.03290
  75   69522.1    143.8   0.000642165   0.00304   0.00016  -0.00001  -0.05514
  76   69775.3    143.3   0.000829668   0.00391  -0.00004  -0.06257   0.00001
  77   70272.9    142.3   0.029118850   0.13641   0.36934   0.00002   0.00013
  78   70634.9    141.6   0.008659657   0.04036  -0.00130  -0.20090   0.00000
  79   70819.2    141.2   0.015198763   0.07065  -0.26580   0.00111   0.00014
  80   71048.3    140.7   0.009804257   0.04543   0.00005  -0.21314   0.00000
  81   71179.2    140.5   0.000387279   0.00179  -0.04228  -0.00188   0.00008
  82   71719.7    139.4   0.000000103   0.00000   0.00000  -0.00002  -0.00069
  83   71862.4    139.2   0.000990186   0.00454  -0.00013  -0.06735   0.00002
  84   71920.6    139.0   0.008024173   0.03673   0.00007  -0.00000  -0.19165
  85   71963.1    139.0   0.000000719   0.00000   0.00000   0.00009  -0.00181
  86   72005.9    138.9   0.020457348   0.09353  -0.00013   0.00000  -0.30583
  87   72011.2    138.9   0.000054475   0.00025   0.00001   0.00012   0.01578
  88   72437.5    138.1   0.000666272   0.00303   0.00009   0.00001   0.05503
  89   72560.1    137.8   0.034823491   0.15800  -0.00000  -0.39749   0.00000
  90   72732.0    137.5   0.076577182   0.34662   0.00028   0.58874  -0.00001
  91   72739.8    137.5   0.009419083   0.04263   0.20647  -0.00071   0.00001
  92   72985.2    137.0   0.021964667   0.09908   0.31476  -0.00005   0.00003
  93   73348.8    136.3   0.000018553   0.00008  -0.00002  -0.00004   0.00913
  94   73405.2    136.2   0.012584575   0.05644   0.00065  -0.00000  -0.23757
  95   73555.3    136.0   0.000000026   0.00000  -0.00003  -0.00013   0.00032
  96   73614.6    135.8   0.014651046   0.06552  -0.25597  -0.00003   0.00038
  97   73628.5    135.8   0.005290114   0.02365   0.15380   0.00002   0.00063
  98   73824.3    135.5   0.034967763   0.15594   0.00021  -0.39489   0.00000
  99   74014.2    135.1   0.000000040   0.00000   0.00001  -0.00020  -0.00038
 100   74052.7    135.0   0.000000023   0.00000  -0.00000  -0.00022   0.00023
 101   74139.2    134.9   0.002887619   0.01282   0.00039   0.00001   0.11324
 102   74316.6    134.6   0.000016096   0.00007  -0.00245  -0.00002  -0.00808
 103   74367.4    134.5   0.021862926   0.09678   0.31110  -0.00002  -0.00004
 104   74568.4    134.1   0.012583346   0.05555   0.00032   0.23570  -0.00000
 105   74602.5    134.0   0.000000115   0.00000  -0.00001  -0.00052  -0.00049
 106   74702.3    133.9   0.126266121   0.55645  -0.74596   0.00062   0.00005
 107   74740.2    133.8   0.034602931   0.15242  -0.00093  -0.39041   0.00000
 108   74841.2    133.6   0.009809494   0.04315  -0.20773   0.00003   0.00003
 109   75095.4    133.2   0.027958438   0.12257   0.00011   0.35010  -0.00000
 110   75246.3    132.9   0.000000200   0.00000  -0.00002  -0.00067   0.00065
 111   75479.2    132.5   0.000000105   0.00000  -0.00001  -0.00016   0.00066
 112   75560.3    132.3   0.000047151   0.00021  -0.00005  -0.01433   0.00000
 113   75662.7    132.2   0.003714595   0.01616  -0.12713  -0.00001   0.00002
 114   75932.4    131.7   0.001061987   0.00460  -0.00006   0.00000   0.06786
 115   76121.0    131.4   0.005488415   0.02374  -0.15407  -0.00005  -0.00004
 116   76248.2    131.2   0.000000026   0.00000   0.00000   0.00033  -0.00004
 117   76368.9    130.9   0.004164407   0.01795   0.00031  -0.13398   0.00000
 118   76418.6    130.9   0.000000091   0.00000   0.00000   0.00047   0.00042
 119   76512.6    130.7   0.065200685   0.28054  -0.00009  -0.52966   0.00000
 120   76532.7    130.7   0.000466618   0.00201   0.00013  -0.00002   0.04480
 121   76767.2    130.3   0.001263506   0.00542   0.07361   0.00012   0.00002
 122   77014.3    129.8   0.097112066   0.41512   0.64430   0.00028  -0.00002
 123   77051.8    129.8   0.000865143   0.00370  -0.00081   0.00001   0.06079
 124   77057.0    129.8   0.000000919   0.00000  -0.00006  -0.00012   0.00198
 125   77229.1    129.5   0.002232658   0.00952   0.00204  -0.09754   0.00003
 126   77236.1    129.5   0.012291820   0.05239   0.00009  -0.00002  -0.22889
 127   77393.5    129.2   0.008085327   0.03439  -0.00000   0.00000  -0.18545
 128   77398.6    129.2   0.000000207   0.00000  -0.00000  -0.00016   0.00093
 129   77614.8    128.8   0.000000078   0.00000  -0.00000  -0.00016  -0.00055
 130   77668.6    128.8   0.000000018   0.00000  -0.00000   0.00004  -0.00027
 131   77753.1    128.6   0.000000918   0.00000   0.00000   0.00011   0.00197
 132   77818.8    128.5   0.001105898   0.00468   0.00006  -0.00000  -0.06840
 133   78045.0    128.1   0.015216099   0.06419  -0.00001  -0.25335   0.00000
 134   78659.7    127.1   0.000000484   0.00000  -0.00003  -0.00142  -0.00000
 135   79219.8    126.2   0.043647688   0.18139   0.42589   0.00076   0.00040
 136   79331.0    126.1   0.063241691   0.26244   0.00040   0.51229  -0.00001
 137   79452.9    125.9   0.058275456   0.24146  -0.49139   0.00108   0.00007
 138   79667.4    125.5   0.002649291   0.01095   0.10463  -0.00002  -0.00009
 139   79798.5    125.3   0.000000971   0.00000  -0.00000  -0.00010  -0.00200
 140   79854.4    125.2   0.016414799   0.06767   0.00009   0.00000  -0.26014
 141   80043.2    124.9   0.011703173   0.04813   0.00006   0.00000   0.21940
 142   80047.0    124.9   0.000000000   0.00000  -0.00001  -0.00002   0.00003
 143   80162.2    124.7   0.000380892   0.00156  -0.03955  -0.00016   0.00050
 144   80259.7    124.6   0.000347836   0.00143  -0.00290  -0.03766   0.00011
 145   80276.5    124.6   0.007075974   0.02902   0.00572  -0.00001  -0.17025
 146   80278.0    124.6   0.008948689   0.03670   0.19148   0.00005   0.00566
 147   80553.1    124.1   0.026696420   0.10911   0.00097   0.00010  -0.33031
 148   80554.2    124.1   0.041579399   0.16993  -0.00124   0.00015   0.41222
 149   80622.1    124.0   0.103761093   0.42370   0.65092  -0.00042  -0.00092
 150   80660.9    124.0   0.002377971   0.00971  -0.00246  -0.09849  -0.00003
 151   80810.4    123.7   0.034215117   0.13939  -0.37333  -0.00082  -0.00308
 152   80845.2    123.7   0.008581244   0.03494   0.00265  -0.18691   0.00004
 153   80934.9    123.6   0.035412939   0.14405   0.37953  -0.00003  -0.00150
 154   81011.2    123.4   0.007783648   0.03163   0.17785   0.00005   0.00088
 155   81017.1    123.4   0.028578795   0.11613  -0.00143  -0.00000  -0.34077
 156   81160.1    123.2   0.002829741   0.01148  -0.00137   0.00001  -0.10713
 157   81179.2    123.2   0.009201251   0.03731   0.00008   0.19317   0.00000
 158   81326.9    123.0   0.000262590   0.00106  -0.00059  -0.00001   0.03260
 159   81363.7    122.9   0.000001112   0.00000  -0.00002  -0.00023  -0.00211
 160   81469.9    122.7   0.023388797   0.09451   0.00005   0.30743   0.00030
 161   81477.0    122.7   0.000091084   0.00037  -0.00003   0.01851  -0.00505
 162   81575.6    122.6   0.000006761   0.00003   0.00001   0.00215  -0.00476
 163   81620.0    122.5   0.005555836   0.02241   0.14970   0.00016   0.00018
 164   81795.3    122.3   0.023881574   0.09612  -0.00015  -0.31003   0.00001
 165   81913.1    122.1   0.000002046   0.00001   0.00011  -0.00039   0.00284
 166   82051.2    121.9   0.000000719   0.00000   0.00003  -0.00014   0.00169
 167   82076.7    121.8   0.044915564   0.18016   0.42445   0.00001  -0.00001
 168   82249.1    121.6   0.000504054   0.00202  -0.00029   0.00005   0.04492
 169   82250.0    121.6   0.000410121   0.00164   0.00001   0.04052  -0.00005
 170   82321.8    121.5   0.000089302   0.00036  -0.00006   0.00000  -0.01890
 171   82491.9    121.2   0.000000241   0.00000  -0.00001  -0.00048   0.00086
 172   82519.7    121.2   0.000000186   0.00000  -0.00001   0.00007  -0.00086
 173   82648.8    121.0   0.000000461   0.00000  -0.00000  -0.00019  -0.00134
 174   82747.7    120.8   0.000357651   0.00142   0.03772  -0.00003  -0.00024
 175   82805.7    120.8   0.006346052   0.02523   0.00012  -0.00001  -0.15884
 176   82868.9    120.7   0.082050449   0.32596  -0.00003  -0.00001  -0.57093
 177   83049.4    120.4   0.000003827   0.00002  -0.00001  -0.00002  -0.00390
 178   83075.8    120.4   0.021432179   0.08493   0.00000  -0.29143   0.00002
 179   83093.0    120.3   0.000002319   0.00001  -0.00000  -0.00123  -0.00277
 180   83602.1    119.6   0.052772520   0.20781  -0.00001  -0.45586   0.00001
 181   83897.3    119.2   0.058508103   0.22959  -0.00022  -0.00000  -0.47915
 182   84090.9    118.9   0.017654141   0.06912  -0.00002   0.00000   0.26290
 183   84218.0    118.7   0.000717648   0.00281   0.00009  -0.00000   0.05297
 184   84417.4    118.5   0.000000156   0.00000  -0.00000   0.00016   0.00076
 185   84560.9    118.3   0.000001019   0.00000  -0.00000  -0.00013   0.00199
 186   84568.4    118.2   0.008865421   0.03451  -0.00004   0.00000  -0.18577
 187   84655.6    118.1   0.036355747   0.14138   0.00029   0.00002   0.37601
 188   84691.0    118.1   0.003794626   0.01475  -0.00015  -0.12145   0.00006
 189   84856.5    117.8   0.083592877   0.32431  -0.00011  -0.00011  -0.56948
 190   84866.0    117.8   0.058378022   0.22646   0.00108   0.47588  -0.00014
 191   85025.7    117.6   0.017264502   0.06685   0.25855   0.00079  -0.00017
 192   85045.6    117.6   0.036305370   0.14054  -0.00179   0.37488   0.00001
 193   85171.2    117.4   0.000000952   0.00000   0.00001   0.00050   0.00185
 194   85236.1    117.3   0.007025612   0.02714   0.00016   0.00001  -0.16473
 195   85327.9    117.2   0.000313703   0.00121   0.03157   0.01462  -0.00002
 196   85329.7    117.2   0.000741297   0.00286  -0.05276   0.00875   0.00004

Dispersion correction           -0.045573408
FINAL SINGLE POINT ENERGY      -463.009981316455

DIPOLE MOMENT
-------------
                                X             Y             Z
Electronic contribution:     -0.00000       3.19793      -0.00002
Nuclear contribution   :      0.00000      -3.58097       0.00002
                        -----------------------------------------
Total Dipole Moment    :     -0.00000      -0.38304       0.00000
                        -----------------------------------------
Magnitude (a.u.)       :      0.38304
Magnitude (Debye)      :      0.97361

Rotational constants in cm-1:     0.047030     0.039847     0.021743
Rotational constants in MHz :  1409.916390  1194.572145   651.842145

                             ****ORCA TERMINATED NORMALLY****
TOTAL RUN TIME: 0 days 2 hours 3 minutes 53 seconds 3 msec
