                         Program Version 5.0.4 -  RELEASE  -
|  1> !b3lyp 6-311+g** d4 moread UKS
|  2>
|  3> %scf
|  4>   stabperform true
|  5>   stabdtol 0.00001
|  6>   stabrtol 0.00001
|  7>   end
|  8>
|  9> %maxcore 5000
| 10> %pal
| 11> nprocs 8
| 12> end
| 13>
| 14> %tddft
| 15>   nroots 1000
| 16>   end
| 17>
| 18> %moinp "Stone-Wales_defect_loss_six_orca6.0.gbw"
| 19>
| 20> * xyz  0  1
| 21>   C   2.65275128826153     -3.24955068983803      0.00418934134358
| 22>   C   1.57844270590085     -3.88534056637248      0.00354696706783
| 23>   C   0.41737335801058     -3.07054036145796      0.00436462920641
| 24>   C   -0.92447754217501     -3.47781932767187      0.00394692809896
| 25>   C   -2.09149131133919     -2.73807175308125      0.00467104592535
| 26>   C   -2.21134318352183     -1.33360720930751      0.00609205792533
| 27>   C   -3.42486054893010     -0.58041961380450      0.00684199795270
| 28>   C   -3.63098631887311      0.63507500922426      0.00808511479930
| 29>   C   -2.65202655357254      1.67152404052433      0.00915088849991
| 30>   C   -2.63301406470047      3.08246606750079      0.01057920444461
| 31>   C   -1.42937957047094      3.79483591251306      0.01128813420040
| 32>   C   -0.18326398229195      3.13273762242878      0.01062042132775
| 33>   C   1.19633995555592      3.49299887139081      0.01098551327538
| 34>   C   2.16218604529862      2.72683906321597      0.01021345818978
| 35>   C   2.23913667397300      1.30096701170459      0.00877827509022
| 36>   C   3.41249008236421      0.52005936106537      0.00800696720759
| 37>   C   3.49962786445729     -0.85906382283723      0.00662040552058
| 38>   C   2.49741329088246     -1.83970552363432      0.00561562789710
| 39>   C   0.31505991763727     -0.52489452365824      0.00691590892736
| 40>   C   -1.40449655338480      1.00292493526044      0.00847397601264
| 41>   C   -1.14483292315536     -0.38463846184542      0.00706256162884
| 42>   C   1.01104245784290     -1.70118681060915      0.00573881886094
| 43>   H   -1.05270695010507     -4.55561780920364      0.00286107947275
| 44>   H   -3.02212330062401     -3.29239030681766      0.00409717820621
| 45>   H   -3.56808201617713      3.62917927613023      0.01114047552174
| 46>   H   -1.45884549390032      4.87761439737867      0.01238095638127
| 47>   H   4.34647864171629      1.06873634505758      0.00856581940498
| 48>   H   4.50646250920553     -1.26452489021571      0.00622046854151
| 49>   C   0.89407144042790      0.82218472334227      0.00828528683209
| 50>   C   -0.19734591831255      1.71745903361782      0.00919049223691
| 51>   *
| 52>
| 53>                          ****END OF INPUT****

CARTESIAN COORDINATES (ANGSTROEM)
---------------------------------
  C      2.652751   -3.249551    0.004189
  C      1.578443   -3.885341    0.003547
  C      0.417373   -3.070540    0.004365
  C     -0.924478   -3.477819    0.003947
  C     -2.091491   -2.738072    0.004671
  C     -2.211343   -1.333607    0.006092
  C     -3.424861   -0.580420    0.006842
  C     -3.630986    0.635075    0.008085
  C     -2.652027    1.671524    0.009151
  C     -2.633014    3.082466    0.010579
  C     -1.429380    3.794836    0.011288
  C     -0.183264    3.132738    0.010620
  C      1.196340    3.492999    0.010986
  C      2.162186    2.726839    0.010213
  C      2.239137    1.300967    0.008778
  C      3.412490    0.520059    0.008007
  C      3.499628   -0.859064    0.006620
  C      2.497413   -1.839706    0.005616
  C      0.315060   -0.524895    0.006916
  C     -1.404497    1.002925    0.008474
  C     -1.144833   -0.384638    0.007063
  C      1.011042   -1.701187    0.005739
  H     -1.052707   -4.555618    0.002861
  H     -3.022123   -3.292390    0.004097
  H     -3.568082    3.629179    0.011140
  H     -1.458845    4.877614    0.012381
  H      4.346479    1.068736    0.008566
  H      4.506463   -1.264525    0.006220
  C      0.894071    0.822185    0.008285
  C     -0.197346    1.717459    0.009190

 Total Charge           Charge          ....    0
 Multiplicity           Mult            ....    1
 Number of Electrons    NEL             ....  150
 Basis Dimension        Dim             ....  564

ORBITAL ENERGIES
----------------
                 SPIN UP ORBITALS
  NO   OCC          E(Eh)            E(eV)
   0   1.0000     -10.241121      -278.6751
   1   1.0000     -10.240938      -278.6701
   2   1.0000     -10.234794      -278.5029
   3   1.0000     -10.233424      -278.4656
   4   1.0000     -10.230194      -278.3777
   5   1.0000     -10.230070      -278.3744
   6   1.0000     -10.225425      -278.2480
   7   1.0000     -10.224837      -278.2319
   8   1.0000     -10.210503      -277.8419
   9   1.0000     -10.210316      -277.8368
  10   1.0000     -10.209853      -277.8242
  11   1.0000     -10.209567      -277.8164
  12   1.0000     -10.205513      -277.7061
  13   1.0000     -10.204975      -277.6915
  14   1.0000     -10.201146      -277.5873
  15   1.0000     -10.201041      -277.5844
  16   1.0000     -10.200336      -277.5652
  17   1.0000     -10.198612      -277.5183
  18   1.0000     -10.198127      -277.5051
  19   1.0000     -10.198098      -277.5044
  20   1.0000     -10.197769      -277.4954
  21   1.0000     -10.196420      -277.4587
  22   1.0000     -10.196361      -277.4571
  23   1.0000     -10.191368      -277.3212
  24   1.0000      -0.942339       -25.6424
  25   1.0000      -0.912447       -24.8289
  26   1.0000      -0.890720       -24.2377
  27   1.0000      -0.863177       -23.4883
  28   1.0000      -0.842497       -22.9255
  29   1.0000      -0.837285       -22.7837
  30   1.0000      -0.806897       -21.9568
  31   1.0000      -0.787263       -21.4225
  32   1.0000      -0.774679       -21.0801
  33   1.0000      -0.749741       -20.4015
  34   1.0000      -0.734065       -19.9749
  35   1.0000      -0.726728       -19.7753
  36   1.0000      -0.684227       -18.6188
  37   1.0000      -0.665372       -18.1057
  38   1.0000      -0.656806       -17.8726
  39   1.0000      -0.630367       -17.1532
  40   1.0000      -0.599609       -16.3162
  41   1.0000      -0.586124       -15.9492
  42   1.0000      -0.582194       -15.8423
  43   1.0000      -0.556522       -15.1437
  44   1.0000      -0.541380       -14.7317
  45   1.0000      -0.528508       -14.3814
  46   1.0000      -0.519038       -14.1237
  47   1.0000      -0.516344       -14.0504
  48   1.0000      -0.488889       -13.3034
  49   1.0000      -0.478729       -13.0269
  50   1.0000      -0.464142       -12.6299
  51   1.0000      -0.461231       -12.5507
  52   1.0000      -0.456231       -12.4147
  53   1.0000      -0.456184       -12.4134
  54   1.0000      -0.434073       -11.8117
  55   1.0000      -0.419512       -11.4155
  56   1.0000      -0.418593       -11.3905
  57   1.0000      -0.406112       -11.0509
  58   1.0000      -0.404348       -11.0029
  59   1.0000      -0.398204       -10.8357
  60   1.0000      -0.396749       -10.7961
  61   1.0000      -0.380970       -10.3667
  62   1.0000      -0.368383       -10.0242
  63   1.0000      -0.364574        -9.9206
  64   1.0000      -0.351210        -9.5569
  65   1.0000      -0.351090        -9.5537
  66   1.0000      -0.301312        -8.1991
  67   1.0000      -0.295662        -8.0454
  68   1.0000      -0.289514        -7.8781
  69   1.0000      -0.287582        -7.8255
  70   1.0000      -0.285455        -7.7676
  71   1.0000      -0.282671        -7.6919
  72   1.0000      -0.252007        -6.8575
  73   1.0000      -0.242797        -6.6068
  74   1.0000      -0.206837        -5.6283
  75   0.0000      -0.120294        -3.2734
  76   0.0000      -0.110060        -2.9949
  77   0.0000      -0.096348        -2.6218
  78   0.0000      -0.090969        -2.4754
  79   0.0000      -0.089747        -2.4421

                 SPIN DOWN ORBITALS
  NO   OCC          E(Eh)            E(eV)
   0   1.0000     -10.241121      -278.6751
   1   1.0000     -10.240938      -278.6701
   2   1.0000     -10.234794      -278.5029
   3   1.0000     -10.233423      -278.4656
   4   1.0000     -10.230200      -278.3779
   5   1.0000     -10.230065      -278.3742
   6   1.0000     -10.225436      -278.2483
   7   1.0000     -10.224826      -278.2317
   8   1.0000     -10.210503      -277.8419
   9   1.0000     -10.210317      -277.8368
  10   1.0000     -10.209837      -277.8238
  11   1.0000     -10.209583      -277.8169
  12   1.0000     -10.205516      -277.7062
  13   1.0000     -10.204972      -277.6914
  14   1.0000     -10.201167      -277.5879
  15   1.0000     -10.201020      -277.5839
  16   1.0000     -10.200329      -277.5651
  17   1.0000     -10.198612      -277.5184
  18   1.0000     -10.198148      -277.5057
  19   1.0000     -10.198097      -277.5043
  20   1.0000     -10.197748      -277.4948
  21   1.0000     -10.196482      -277.4604
  22   1.0000     -10.196298      -277.4554
  23   1.0000     -10.191376      -277.3214
  24   1.0000      -0.942339       -25.6424
  25   1.0000      -0.912446       -24.8289
  26   1.0000      -0.890720       -24.2377
  27   1.0000      -0.863177       -23.4882
  28   1.0000      -0.842497       -22.9255
  29   1.0000      -0.837285       -22.7837
  30   1.0000      -0.806896       -21.9567
  31   1.0000      -0.787263       -21.4225
  32   1.0000      -0.774679       -21.0801
  33   1.0000      -0.749740       -20.4015
  34   1.0000      -0.734064       -19.9749
  35   1.0000      -0.726728       -19.7753
  36   1.0000      -0.684228       -18.6188
  37   1.0000      -0.665375       -18.1058
  38   1.0000      -0.656802       -17.8725
  39   1.0000      -0.630368       -17.1532
  40   1.0000      -0.599604       -16.3161
  41   1.0000      -0.586132       -15.9495
  42   1.0000      -0.582194       -15.8423
  43   1.0000      -0.556522       -15.1437
  44   1.0000      -0.541379       -14.7317
  45   1.0000      -0.528508       -14.3814
  46   1.0000      -0.519060       -14.1243
  47   1.0000      -0.516318       -14.0497
  48   1.0000      -0.488888       -13.3033
  49   1.0000      -0.478729       -13.0269
  50   1.0000      -0.464142       -12.6299
  51   1.0000      -0.461230       -12.5507
  52   1.0000      -0.456232       -12.4147
  53   1.0000      -0.456184       -12.4134
  54   1.0000      -0.434076       -11.8118
  55   1.0000      -0.419512       -11.4155
  56   1.0000      -0.418592       -11.3905
  57   1.0000      -0.406112       -11.0509
  58   1.0000      -0.404349       -11.0029
  59   1.0000      -0.398201       -10.8356
  60   1.0000      -0.396749       -10.7961
  61   1.0000      -0.380970       -10.3667
  62   1.0000      -0.368382       -10.0242
  63   1.0000      -0.364565        -9.9203
  64   1.0000      -0.351212        -9.5570
  65   1.0000      -0.351088        -9.5536
  66   1.0000      -0.301313        -8.1992
  67   1.0000      -0.295658        -8.0453
  68   1.0000      -0.289533        -7.8786
  69   1.0000      -0.287585        -7.8256
  70   1.0000      -0.285454        -7.7676
  71   1.0000      -0.282674        -7.6919
  72   1.0000      -0.252007        -6.8575
  73   1.0000      -0.242796        -6.6068
  74   1.0000      -0.206837        -5.6283
  75   0.0000      -0.120286        -3.2732
  76   0.0000      -0.110063        -2.9950
  77   0.0000      -0.096348        -2.6218
  78   0.0000      -0.090969        -2.4754
  79   0.0000      -0.089743        -2.4420

MULLIKEN ATOMIC CHARGES AND SPIN POPULATIONS
--------------------------------------------
   0 C :   -0.027068    0.236883
   1 C :    0.003412   -0.235231
   2 C :    0.958945   -0.030470
   3 C :   -1.067006    0.097999
   4 C :   -0.708827    0.026392
   5 C :    1.143973   -0.011809
   6 C :   -0.177162    0.011891
   7 C :    0.027760   -0.008345
   8 C :    0.449365    0.008885
   9 C :   -0.278871   -0.009494
  10 C :   -0.267878    0.008577
  11 C :    0.430645   -0.008923
  12 C :    0.054150    0.010410
  13 C :   -0.218735   -0.012837
  14 C :    1.099603    0.009861
  15 C :   -0.719983   -0.026805
  16 C :   -1.039828   -0.101027
  17 C :    0.962713    0.027590
  18 C :    0.081248    0.000295
  19 C :   -0.381163   -0.005112
  20 C :   -0.018786   -0.000911
  21 C :   -0.804673    0.004584
  22 H :    0.154121    0.000301
  23 H :    0.145722   -0.001169
  24 H :    0.144253    0.000486
  25 H :    0.144323   -0.000485
  26 H :    0.145706    0.001168
  27 H :    0.153751   -0.000296
  28 C :   -0.006615    0.001772
  29 C :   -0.383093    0.005820
Sum of atomic charges         :   -0.0000000

LOEWDIN ATOMIC CHARGES AND SPIN POPULATIONS
-------------------------------------------
   0 C :    0.016678    0.439402
   1 C :    0.016658   -0.439438
   2 C :   -0.086585    0.012156
   3 C :   -0.010737   -0.016301
   4 C :   -0.064295    0.019243
   5 C :   -0.031319   -0.007828
   6 C :    0.015830    0.006310
   7 C :    0.025546   -0.006741
   8 C :   -0.056454    0.005907
   9 C :   -0.027108   -0.006224
  10 C :   -0.027139    0.006222
  11 C :   -0.056407   -0.005909
  12 C :    0.025353    0.006764
  13 C :    0.016096   -0.006323
  14 C :   -0.031401    0.007842
  15 C :   -0.064309   -0.019261
  16 C :   -0.010719    0.016321
  17 C :   -0.086522   -0.012171
  18 C :    0.036811    0.000019
  19 C :   -0.030990   -0.001657
  20 C :   -0.041371    0.008418
  21 C :    0.013864    0.000012
  22 H :    0.092434   -0.000046
  23 H :    0.087451    0.000251
  24 H :    0.085598    0.000001
  25 H :    0.085610   -0.000001
  26 H :    0.087438   -0.000251
  27 H :    0.092414    0.000046
  28 C :   -0.041423   -0.008426
  29 C :   -0.031001    0.001660

  Mayer bond orders larger than 0.100000
B(  0-C ,  1-C ) :   1.5362 B(  0-C ,  4-C ) :  -0.1087 B(  0-C ,  5-C ) :   0.2245
B(  0-C ,  7-C ) :  -0.2307 B(  0-C , 12-C ) :   0.1631 B(  0-C , 14-C ) :  -0.4267
B(  0-C , 15-C ) :   0.2993 B(  0-C , 17-C ) :   0.1159 B(  0-C , 21-C ) :   0.7472
B(  1-C ,  2-C ) :   0.1784 B(  1-C ,  3-C ) :  -0.1162 B(  1-C ,  4-C ) :   0.2892
B(  1-C ,  5-C ) :  -0.4151 B(  1-C ,  7-C ) :   0.1771 B(  1-C , 12-C ) :  -0.2205
B(  1-C , 14-C ) :   0.2212 B(  1-C , 15-C ) :  -0.1090 B(  1-C , 21-C ) :   0.7232
B(  2-C ,  3-C ) :   0.7387 B(  2-C ,  4-C ) :  -0.1599 B(  2-C ,  5-C ) :   1.0675
B(  2-C ,  7-C ) :  -0.3330 B(  2-C ,  8-C ) :  -0.1077 B(  2-C , 11-C ) :  -0.1307
B(  2-C , 12-C ) :   0.5393 B(  2-C , 13-C ) :  -0.1077 B(  2-C , 14-C ) :  -0.2725
B(  2-C , 15-C ) :   0.1182 B(  2-C , 16-C ) :  -0.1017 B(  2-C , 18-C ) :  -0.1112
B(  2-C , 21-C ) :   1.0131 B(  2-C , 28-C ) :  -0.1042 B(  3-C ,  4-C ) :   1.4772
B(  3-C ,  5-C ) :  -0.8407 B(  3-C ,  6-C ) :   0.3296 B(  3-C , 12-C ) :  -0.4052
B(  3-C , 13-C ) :   0.3708 B(  3-C , 14-C ) :   0.1715 B(  3-C , 18-C ) :   0.1315
B(  3-C , 20-C ) :   0.2036 B(  3-C , 21-C ) :   0.8905 B(  3-C , 22-H ) :   0.9303
B(  4-C ,  9-C ) :   0.1264 B(  4-C , 17-C ) :   0.1107 B(  4-C , 19-C ) :   0.2494
B(  4-C , 20-C ) :   0.2947 B(  4-C , 23-H ) :   1.0972 B(  5-C ,  6-C ) :   0.2728
B(  5-C , 14-C ) :   0.4102 B(  5-C , 16-C ) :   0.1747 B(  5-C , 17-C ) :  -0.2790
B(  5-C , 19-C ) :  -0.1370 B(  5-C , 20-C ) :   2.0144 B(  5-C , 21-C ) :   0.1886
B(  5-C , 23-H ) :  -0.4336 B(  5-C , 28-C ) :   0.1037 B(  5-C , 29-C ) :  -0.3390
B(  6-C ,  7-C ) :   1.1615 B(  6-C ,  8-C ) :  -0.1186 B(  6-C , 11-C ) :   0.1236
B(  6-C , 16-C ) :   0.3715 B(  6-C , 17-C ) :  -0.1139 B(  6-C , 18-C ) :  -0.1243
B(  6-C , 19-C ) :   0.4447 B(  6-C , 21-C ) :  -0.4328 B(  7-C ,  8-C ) :   1.4512
B(  7-C ,  9-C ) :  -1.1983 B(  7-C , 16-C ) :  -0.4060 B(  7-C , 17-C ) :   0.5469
B(  7-C , 19-C ) :   0.2853 B(  7-C , 20-C ) :   0.3492 B(  7-C , 21-C ) :   0.1105
B(  8-C ,  9-C ) :   0.9110 B(  8-C , 10-C ) :  -0.2398 B(  8-C , 11-C ) :   0.1439
B(  8-C , 13-C ) :   0.1189 B(  8-C , 19-C ) :   1.6478 B(  8-C , 21-C ) :   0.1480
B(  8-C , 24-H ) :  -0.1790 B(  8-C , 29-C ) :   0.1324 B(  9-C , 10-C ) :   1.1166
B(  9-C , 11-C ) :  -0.2285 B(  9-C , 19-C ) :   0.1380 B(  9-C , 24-H ) :   1.0720
B(  9-C , 29-C ) :   0.2924 B( 10-C , 11-C ) :   0.9415 B( 10-C , 12-C ) :  -1.1584
B( 10-C , 15-C ) :   0.1131 B( 10-C , 19-C ) :   0.2831 B( 10-C , 25-H ) :   1.0606
B( 10-C , 29-C ) :   0.1228 B( 11-C , 12-C ) :   1.4233 B( 11-C , 13-C ) :  -0.1225
B( 11-C , 19-C ) :   0.1418 B( 11-C , 21-C ) :   0.1638 B( 11-C , 25-H ) :  -0.1645
B( 11-C , 29-C ) :   1.6518 B( 12-C , 13-C ) :   1.1530 B( 12-C , 17-C ) :  -0.3181
B( 12-C , 21-C ) :   0.1099 B( 12-C , 28-C ) :   0.3432 B( 12-C , 29-C ) :   0.2646
B( 13-C , 14-C ) :   0.3168 B( 13-C , 16-C ) :   0.3310 B( 13-C , 18-C ) :  -0.1262
B( 13-C , 21-C ) :  -0.4356 B( 13-C , 29-C ) :   0.4747 B( 14-C , 16-C ) :  -0.8173
B( 14-C , 17-C ) :   1.0902 B( 14-C , 19-C ) :  -0.3412 B( 14-C , 20-C ) :   0.1030
B( 14-C , 21-C ) :   0.1982 B( 14-C , 26-H ) :  -0.4157 B( 14-C , 28-C ) :   2.0169
B( 14-C , 29-C ) :  -0.1344 B( 15-C , 16-C ) :   1.4467 B( 15-C , 17-C ) :  -0.1945
B( 15-C , 26-H ) :   1.1030 B( 15-C , 28-C ) :   0.2794 B( 15-C , 29-C ) :   0.2492
B( 16-C , 17-C ) :   0.7383 B( 16-C , 18-C ) :   0.1364 B( 16-C , 21-C ) :   0.8467
B( 16-C , 27-H ) :   0.9319 B( 16-C , 28-C ) :   0.2091 B( 17-C , 18-C ) :  -0.1214
B( 17-C , 20-C ) :  -0.1070 B( 17-C , 21-C ) :   1.0257 B( 18-C , 19-C ) :   0.2637
B( 18-C , 20-C ) :   1.4886 B( 18-C , 21-C ) :   1.2218 B( 18-C , 28-C ) :   1.5011
B( 18-C , 29-C ) :   0.2715 B( 19-C , 20-C ) :   0.9412 B( 19-C , 21-C ) :   0.1921
B( 19-C , 29-C ) :   1.6846 B( 20-C , 21-C ) :   0.3702 B( 20-C , 28-C ) :   0.1303
B( 21-C , 22-H ) :   0.1348 B( 21-C , 27-H ) :   0.1356 B( 21-C , 28-C ) :   0.3871
B( 21-C , 29-C ) :   0.2082 B( 28-C , 29-C ) :   0.9472

-----------------------------------------------------------------------------
         ABSORPTION SPECTRUM VIA TRANSITION ELECTRIC DIPOLE MOMENTS
-----------------------------------------------------------------------------
State   Energy    Wavelength  fosc         T2        TX        TY        TZ
        (cm-1)      (nm)                 (au**2)    (au)      (au)      (au)
-----------------------------------------------------------------------------
   1   10576.4    945.5   0.000000001   0.00000  -0.00001   0.00000  -0.00014
   2   11731.0    852.4   0.000476887   0.01338   0.00000   0.00010  -0.11569
   3   12726.7    785.7   0.000004693   0.00012   0.00554  -0.00952  -0.00001
   4   14861.8    672.9   0.002721759   0.06029  -0.21156  -0.12463  -0.00013
   5   16065.4    622.5   0.000018572   0.00038   0.00999  -0.01676  -0.00002
   6   16814.8    594.7   0.000148135   0.00290   0.00000  -0.00006   0.05385
   7   17277.6    578.8   0.000838932   0.01599  -0.06425   0.10889   0.00011
   8   18255.8    547.8   0.000002106   0.00004   0.00000   0.00001  -0.00616
   9   18707.3    534.6   0.000000001   0.00000   0.00000   0.00001   0.00016
  10   18902.8    529.0   0.000000335   0.00001  -0.00133   0.00202   0.00000
  11   18927.9    528.3   0.000000179   0.00000   0.00140   0.00107   0.00000
  12   19235.7    519.9   0.000000000   0.00000   0.00000  -0.00000  -0.00003
  13   19407.1    515.3   0.000000000   0.00000  -0.00001  -0.00001  -0.00005
  14   19584.8    510.6   0.000201527   0.00339  -0.05009  -0.02964  -0.00003
  15   19906.5    502.3   0.000058556   0.00097  -0.00000  -0.00002   0.03112
  16   20457.4    488.8   0.000003328   0.00005  -0.00630  -0.00372  -0.00000
  17   22712.4    440.3   0.000907788   0.01316   0.05841  -0.09872  -0.00010
  18   22789.7    438.8   0.000000006   0.00000  -0.00006   0.00011  -0.00028
  19   23155.6    431.9   0.023655627   0.33632  -0.29512   0.49923   0.00050
  20   23326.8    428.7   0.000000000   0.00000   0.00000  -0.00000  -0.00000
  21   24411.6    409.6   0.114347399   1.54208   1.06890   0.63208   0.00065
  22   24615.3    406.3   0.011308529   0.15124   0.33457   0.19826   0.00020
  23   24922.8    401.2   0.000023614   0.00031   0.00001  -0.00002   0.01766
  24   24930.7    401.1   0.000000286   0.00000   0.00001   0.00001  -0.00194
  25   25479.4    392.5   0.000573083   0.00740  -0.07403  -0.04387  -0.00005
  26   25621.4    390.3   0.000000008   0.00000   0.00002   0.00001   0.00031
  27   25773.5    388.0   0.000111697   0.00143   0.00004  -0.00015   0.03777
  28   25999.5    384.6   0.001255528   0.01590  -0.06388   0.10871   0.00011
  29   26117.2    382.9   0.033235308   0.41894  -0.32917   0.55730   0.00057
  30   26209.3    381.5   0.000000000   0.00000  -0.00001   0.00002  -0.00001
  31   26924.9    371.4   0.000091605   0.00112  -0.02866  -0.01727  -0.00002
  32   27014.2    370.2   0.000008609   0.00010  -0.00000   0.00001  -0.01024
  33   27114.0    368.8   0.000039186   0.00048   0.01118  -0.01873  -0.00002
  34   27310.5    366.2   0.000320662   0.00387  -0.00000  -0.00005   0.06217
  35   27553.7    362.9   0.000000013   0.00000   0.00002   0.00000   0.00040
  36   28383.5    352.3   0.000089345   0.00104  -0.00000  -0.00003   0.03219
  37   28904.6    346.0   0.000064071   0.00073   0.02324   0.01377   0.00001
  38   29048.9    344.2   0.000000001   0.00000  -0.00000   0.00000   0.00010
  39   30350.6    329.5   0.048134587   0.52211  -0.36818   0.62174   0.00063
  40   30417.5    328.8   0.000026921   0.00029  -0.01645  -0.00454  -0.00001
  41   31095.1    321.6   0.000079270   0.00084   0.01466  -0.02499  -0.00002
  42   31160.1    320.9   0.000000032   0.00000   0.00000   0.00000  -0.00058
  43   31161.2    320.9   0.000000093   0.00000   0.00000   0.00000   0.00099
  44   31626.2    316.2   0.000000000   0.00000   0.00001  -0.00000   0.00007
  45   31828.4    314.2   0.000000000   0.00000   0.00004   0.00002   0.00005
  46   31864.7    313.8   0.054250743   0.56049  -0.64424  -0.38138  -0.00038
  47   31988.9    312.6   0.000000019   0.00000  -0.00011  -0.00009  -0.00042
  48   32023.4    312.3   0.000231371   0.00238   0.00004  -0.00004   0.04877
  49   32361.3    309.0   0.001373680   0.01397   0.00000   0.00011  -0.11821
  50   32462.2    308.1   0.000000252   0.00000   0.00002  -0.00002  -0.00160
  51   32720.2    305.6   0.000241954   0.00243   0.01880  -0.04562  -0.00004
  52   32724.0    305.6   0.000411799   0.00414  -0.03672   0.05286   0.00004
  53   32771.7    305.1   0.000003230   0.00003  -0.00312   0.00476   0.00000
  54   33251.1    300.7   0.000001980   0.00002  -0.00189  -0.00400  -0.00000
  55   33257.2    300.7   0.000636790   0.00630   0.06895   0.03937   0.00004
  56   33333.8    300.0   0.097623636   0.96415   0.49663  -0.84706  -0.00086
  57   33338.5    300.0   0.000936013   0.00924  -0.09531   0.01263   0.00001
  58   33627.0    297.4   0.000043187   0.00042   0.00000  -0.00003   0.02056
  59   34073.4    293.5   0.000000000   0.00000  -0.00002  -0.00001  -0.00004
  60   34309.9    291.5   0.000169526   0.00163  -0.03466  -0.02062  -0.00002
  61   34475.2    290.1   0.013263866   0.12666  -0.30706  -0.17992  -0.00018
  62   34495.3    289.9   0.000000001   0.00000   0.00001   0.00001  -0.00008
  63   34985.1    285.8   0.000470847   0.00443   0.00002  -0.00011   0.06656
  64   35210.5    284.0   0.000445356   0.00416  -0.05546  -0.03299  -0.00004
  65   35317.6    283.1   0.000003573   0.00003  -0.00000   0.00003  -0.00577
  66   35348.5    282.9   0.001528044   0.01423  -0.10233  -0.06131  -0.00007
  67   35460.6    282.0   0.001085712   0.01008   0.05120  -0.08636  -0.00009
  68   36036.7    277.5   0.000000001   0.00000  -0.00001   0.00001  -0.00011
  69   36069.6    277.2   0.000011139   0.00010  -0.00002   0.00002   0.01008
  70   36176.3    276.4   0.000875933   0.00797  -0.04540   0.07688   0.00007
  71   36401.0    274.7   0.000000008   0.00000  -0.00006   0.00011  -0.00025
  72   36438.0    274.4   0.008692618   0.07854   0.14230  -0.24143  -0.00024
  73   36741.0    272.2   0.000000039   0.00000   0.00000   0.00001  -0.00059
  74   36810.3    271.7   0.000000032   0.00000  -0.00000   0.00002  -0.00053
  75   37066.6    269.8   0.000066309   0.00059  -0.00011   0.00015   0.02427
  76   37144.0    269.2   0.140496449   1.24524   0.56902  -0.95993  -0.00093
  77   37253.0    268.4   0.000889492   0.00786  -0.00018   0.00022   0.08866
  78   37257.8    268.4   0.000158542   0.00140  -0.00006   0.00006   0.03743
  79   37656.4    265.6   0.035928242   0.31410  -0.48156  -0.28672  -0.00029
  80   37671.5    265.5   0.000000011   0.00000  -0.00007  -0.00007  -0.00030
  81   37796.1    264.6   0.046550602   0.40547  -0.54708  -0.32584  -0.00033
  82   38141.6    262.2   0.000000004   0.00000   0.00004   0.00001  -0.00018
  83   38258.8    261.4   0.000136953   0.00118   0.02184  -0.02648  -0.00003
  84   38288.8    261.2   0.000000000   0.00000   0.00001  -0.00001  -0.00003
  85   38294.6    261.1   0.000047147   0.00041  -0.01184  -0.01628  -0.00002
  86   38328.9    260.9   0.000112681   0.00097  -0.01914   0.02453   0.00003
  87   38393.9    260.5   0.003033874   0.02601   0.09902  -0.12731  -0.00014
  88   38576.7    259.2   0.000086901   0.00074   0.00004  -0.00000   0.02723
  89   38618.0    258.9   0.012035655   0.10260  -0.27597  -0.16262  -0.00017
  90   38640.6    258.8   0.000000079   0.00000   0.00038   0.00026   0.00068
  91   38661.5    258.7   0.000000019   0.00000  -0.00031  -0.00018  -0.00018
  92   38682.7    258.5   0.147389257   1.25437  -0.96307  -0.57172  -0.00059
  93   38758.8    258.0   0.000780306   0.00663   0.00008   0.00008  -0.08141
  94   38774.0    257.9   0.015151404   0.12864  -0.30118  -0.19477  -0.00018
  95   38786.7    257.8   0.001247464   0.01059  -0.10085   0.02045   0.00000
  96   38846.2    257.4   0.000356611   0.00302   0.00001  -0.00007   0.05497
  97   39096.0    255.8   0.039462306   0.33230   0.50130   0.28460   0.00028
  98   39110.4    255.7   0.000000111   0.00000  -0.00081  -0.00053  -0.00003
  99   39159.8    255.4   0.000024944   0.00021  -0.00000   0.00000  -0.01448
 100   39282.6    254.6   0.159771857   1.33899  -0.58283   0.99965   0.00100
 101   39483.5    253.3   0.000000001   0.00000   0.00006   0.00003   0.00003
 102   39551.8    252.8   0.003542009   0.02948   0.08675  -0.14818  -0.00015
 103   39627.3    252.4   0.000038745   0.00032   0.00001  -0.00004   0.01794
 104   39972.1    250.2   0.001278157   0.01053  -0.08116  -0.06278  -0.00006
 105   39986.2    250.1   0.000813637   0.00670  -0.05457   0.06100   0.00006
 106   40235.3    248.5   0.000000002   0.00000  -0.00000   0.00001   0.00013
 107   40383.9    247.6   0.003165050   0.02580   0.08116  -0.13862  -0.00014
 108   40751.7    245.4   0.000010386   0.00008  -0.00000   0.00001  -0.00916
 109   40792.9    245.1   0.037045016   0.29897  -0.47194  -0.27612  -0.00028
 110   40865.1    244.7   0.000512593   0.00413   0.05526   0.03279   0.00003
 111   40878.4    244.6   0.000000001   0.00000  -0.00006  -0.00003  -0.00006
 112   41781.1    239.3   0.202930974   1.59899  -1.08798  -0.64443  -0.00065
 113   42084.5    237.6   0.000753846   0.00590   0.06607   0.03915   0.00004
 114   42537.1    235.1   0.002806198   0.02172   0.07495  -0.12689  -0.00014
 115   42735.9    234.0   0.000858877   0.00662  -0.04049   0.07055   0.00007
 116   42947.1    232.8   0.000000019   0.00000   0.00000  -0.00000   0.00038
 117   43061.5    232.2   0.004490531   0.03433  -0.00001  -0.00021   0.18529
 118   43806.6    228.3   0.000023420   0.00018   0.00000  -0.00001   0.01327
 119   43865.5    228.0   0.000000149   0.00000  -0.00001   0.00000  -0.00106
 120   44356.9    225.4   0.014972893   0.11113   0.16983  -0.28685  -0.00029
 121   44559.2    224.4   1.101253953   8.13627  -1.45314   2.45452   0.00247
 122   44672.2    223.9   0.000000014   0.00000  -0.00004   0.00006  -0.00031
 123   44813.8    223.1   0.000181062   0.00133   0.00013  -0.00025   0.03647
 124   45092.8    221.8   0.000157337   0.00115   0.03181   0.01170   0.00001
 125   45114.4    221.7   0.000008474   0.00006  -0.00002   0.00002   0.00786
 126   45282.1    220.8   0.008749201   0.06361  -0.12889   0.21679   0.00022
 127   45289.2    220.8   0.000000004   0.00000   0.00000  -0.00001  -0.00016
 128   45311.3    220.7   0.000034099   0.00025  -0.00652  -0.01433  -0.00001
 129   45395.4    220.3   0.000000000   0.00000  -0.00000  -0.00000   0.00000
 130   45395.4    220.3   0.000000000   0.00000   0.00000  -0.00000   0.00000
 131   45395.4    220.3   0.000000000   0.00000   0.00000  -0.00000  -0.00000
 132   45395.4    220.3   0.000000000   0.00000  -0.00000   0.00000  -0.00000
 133   45395.4    220.3   0.000000000   0.00000   0.00000   0.00000  -0.00000
 134   45395.4    220.3   0.000000000   0.00000   0.00000   0.00000   0.00000
 135   45395.4    220.3   0.000000000   0.00000   0.00000   0.00000  -0.00000
 136   45395.4    220.3   0.000000000   0.00000   0.00000   0.00000  -0.00000
 137   45395.4    220.3   0.000000000   0.00000   0.00000   0.00000  -0.00000
 138   45395.4    220.3   0.000000000   0.00000   0.00000  -0.00000   0.00000
 139   45395.5    220.3   0.000000000   0.00000   0.00000  -0.00000   0.00000
 140   45395.5    220.3   0.000000000   0.00000  -0.00000  -0.00000   0.00000
 141   45395.5    220.3   0.000000000   0.00000  -0.00000  -0.00000  -0.00000
 142   45395.5    220.3   0.000000000   0.00000   0.00000   0.00000  -0.00000
 143   45395.5    220.3   0.000000000   0.00000  -0.00000   0.00000  -0.00000
 144   45395.5    220.3   0.000000000   0.00000  -0.00000   0.00000  -0.00000
 145   45395.5    220.3   0.000000000   0.00000   0.00000  -0.00000  -0.00000
 146   45395.5    220.3   0.000000000   0.00000   0.00000  -0.00000   0.00000
 147   45395.5    220.3   0.000000000   0.00000   0.00000  -0.00000   0.00000
 148   45395.5    220.3   0.000000000   0.00000   0.00000   0.00000  -0.00000
 149   45495.5    219.8   0.003695704   0.02674  -0.14066  -0.08341  -0.00009
 150   45627.2    219.2   0.000007049   0.00005   0.00002  -0.00002  -0.00713
 151   45766.1    218.5   0.000000001   0.00000   0.00004  -0.00008  -0.00001
 152   45971.5    217.5   0.000002824   0.00002  -0.00380  -0.00240  -0.00000
 153   46000.5    217.4   0.000161376   0.00115  -0.01726   0.02927   0.00003
 154   46139.0    216.7   0.000006519   0.00005   0.00000  -0.00001   0.00682
 155   46815.4    213.6   0.000880724   0.00619   0.06721   0.04093   0.00004
 156   47017.0    212.7   0.396074663   2.77331  -0.84807   1.43321   0.00144
 157   47391.5    211.0   0.000162159   0.00113  -0.00020   0.00036  -0.03356
 158   47453.6    210.7   1.027113894   7.12565   1.36357  -2.29485  -0.00232
 159   47551.1    210.3   0.000000000   0.00000   0.00001  -0.00001   0.00001
 160   47633.4    209.9   0.002447476   0.01692   0.11728   0.05623   0.00006
 161   47726.5    209.5   0.000000007   0.00000  -0.00000  -0.00022   0.00000
 162   47743.7    209.5   0.000001286   0.00001  -0.00000   0.00001   0.00298
 163   48130.5    207.8   0.000721297   0.00493  -0.03804   0.05905   0.00006
 164   48153.0    207.7   0.000866411   0.00592   0.06641   0.03890   0.00004
 165   48362.3    206.8   0.000000000   0.00000   0.00001   0.00002   0.00001
 166   48487.4    206.2   0.000192587   0.00131   0.00870  -0.03510  -0.00004
 167   48547.5    206.0   0.000091458   0.00062  -0.00202  -0.00123   0.02479
 168   48549.7    206.0   0.872659265   5.91743   2.08891   1.24655   0.00129
 169   48645.9    205.6   0.000000007   0.00000   0.00013   0.00008   0.00016
 170   48663.5    205.5   0.000000003   0.00000  -0.00004  -0.00002   0.00014
 171   48769.0    205.0   0.001131080   0.00764   0.04151  -0.07689  -0.00008
 172   48802.4    204.9   0.000000039   0.00000   0.00002   0.00002   0.00051
 173   48814.1    204.9   0.000404631   0.00273   0.00001  -0.00004   0.05224
 174   48866.2    204.6   0.000473495   0.00319  -0.00000   0.00005  -0.05648
 175   48887.7    204.6   0.000000063   0.00000  -0.00000  -0.00000   0.00065
 176   48891.2    204.5   0.000302688   0.00204   0.00008   0.00002   0.04515
 177   48981.7    204.2   0.000000014   0.00000   0.00004  -0.00003   0.00031
 178   49007.5    204.1   0.000000441   0.00000   0.00001   0.00000  -0.00172
 179   49234.1    203.1   0.003720839   0.02488  -0.13591  -0.08005  -0.00008
 180   49489.8    202.1   0.000002131   0.00001  -0.00096   0.00364   0.00001
 181   49632.1    201.5   0.092095399   0.61087   0.40439  -0.66884   0.00001
 182   49636.7    201.5   0.002161392   0.01434  -0.00229   0.00363   0.11965
 183   49642.0    201.4   0.005798309   0.03845  -0.14171  -0.13554  -0.00018
 184   49832.2    200.7   0.001476758   0.00976   0.08533   0.04974   0.00005
 185   49923.0    200.3   0.000000003   0.00000  -0.00006   0.00001   0.00013
 186   49973.7    200.1   0.002290248   0.01509   0.06241  -0.10579  -0.00011
 187   50026.1    199.9   0.075692462   0.49812   0.60811   0.35822   0.00036
 188   50137.6    199.5   0.000008575   0.00006   0.00001  -0.00000   0.00750
 189   50371.3    198.5   0.000033627   0.00022  -0.00751   0.01278   0.00001
 190   50433.0    198.3   0.000000043   0.00000   0.00002  -0.00001   0.00053
 191   50547.2    197.8   0.000070808   0.00046   0.01818   0.01142   0.00000
 192   50588.3    197.7   0.000089064   0.00058   0.00001  -0.00002   0.02407
 193   50590.9    197.7   0.000007851   0.00005  -0.00000   0.00000  -0.00715
 194   50803.8    196.8   0.000001717   0.00001  -0.00004  -0.00000  -0.00334
 195   50838.5    196.7   0.003925401   0.02542  -0.08190   0.13679   0.00010
 196   50871.9    196.6   0.001025231   0.00663   0.04106  -0.07034   0.00038

Dispersion correction           -0.095097810
FINAL SINGLE POINT ENERGY      -917.451203195461

DIPOLE MOMENT
-------------
                                X             Y             Z
Electronic contribution:      0.12671      -0.21290      -0.00026
Nuclear contribution   :     -0.21679       0.36681       0.00041
                        -----------------------------------------
Total Dipole Moment    :     -0.09008       0.15392       0.00016
                        -----------------------------------------
Magnitude (a.u.)       :      0.17834
Magnitude (Debye)      :      0.45330

Rotational constants in cm-1:     0.013825     0.009713     0.005705
Rotational constants in MHz :   414.467146   291.177927   171.026043

                             ****ORCA TERMINATED NORMALLY****
TOTAL RUN TIME: 0 days 9 hours 7 minutes 22 seconds 244 msec
