                         Program Version 5.0.4 -  RELEASE  -
|  1> ! b3lyp 6-311+g** d4
|  2>
|  3> %maxcore 5000
|  4> %pal
|  5> nprocs 7
|  6> end
|  7>
|  8> %tddft
|  9>   nroots 1000
| 10>   end
| 11>
| 12> * xyz 0 1
| 13>   C   2.73410372137963     -3.23018255987493      0.00419616177509
| 14>   C   1.52725072905496     -3.94473050757940      0.00346882820659
| 15>   C   0.44219008202700     -3.05528656366903      0.00437011116666
| 16>   C   -0.92261980803548     -3.44336940901410      0.00396349111599
| 17>   C   -2.07818340432981     -2.70151399109656      0.00470200851665
| 18>   C   -2.20929052781301     -1.28038676087921      0.00615499592417
| 19>   C   -3.51550099485617     -0.66459432681038      0.00679577903241
| 20>   C   -3.73602024157363      0.69601770425336      0.00819040814841
| 21>   C   -2.63426543077348      1.60731163650560      0.00910852840959
| 22>   C   -2.60078453308585      3.03714458149786      0.01056444701729
| 23>   C   -1.40610009864572      3.74500002720139      0.01126433582547
| 24>   C   -0.13591676726732      3.08751930669542      0.01058740345448
| 25>   C   1.19268612757949      3.61612136967877      0.01112625389173
| 26>   C   2.28009913555574      2.76923325942513      0.01027722043913
| 27>   C   2.19292741053189      1.32762683664310      0.00881579400902
| 28>   C   3.37614397237973      0.52966148650023      0.00803522409344
| 29>   C   3.47168050451492     -0.84033147499282      0.00664974610762
| 30>   C   2.47588440839367     -1.85101187768987      0.00560224734179
| 31>   C   0.32590966091943     -0.54028389890688      0.00690863901024
| 32>   C   -1.39238001302065      0.98397127618347      0.00846133878299
| 33>   C   -1.12997464062303     -0.39122806609289      0.00705794052931
| 34>   C   1.02032923552624     -1.71241877494839      0.00573656149632
| 35>   H   3.72298460464634     -3.66946779522506      0.00374964634656
| 36>   H   1.43680835592605     -5.02303348273594      0.00236863924038
| 37>   H   -1.06569188401657     -4.52171226453978      0.00286189550504
| 38>   H   -3.00928030088838     -3.26011265306035      0.00412204352540
| 39>   H   -4.37365352941185     -1.32874135890470      0.00612689005542
| 40>   H   -4.75487290198003      1.06942714582969      0.00858270579149
| 41>   H   -3.53521138208037      3.58872704488789      0.01114287484542
| 42>   H   -1.44106119395834      4.82952641718806      0.01236953876004
| 43>   H   1.35458572554270      4.68910171334580      0.01221426607619
| 44>   H   3.27467362964550      3.20321337383766      0.01072768272079
| 45>   H   4.31367968755968      1.07737509859570      0.00860789115987
| 46>   H   4.48637580652361     -1.23239371009040      0.00627018218861
| 47>   C   0.89451567637412      0.80820486500872      0.00827330091894
| 48>   C   -0.18561082172101      1.69893633283286      0.00917497857150
| 49> **                         ****END OF INPUT****

CARTESIAN COORDINATES (ANGSTROEM)
---------------------------------
  C      2.734104   -3.230183    0.004196
  C      1.527251   -3.944731    0.003469
  C      0.442190   -3.055287    0.004370
  C     -0.922620   -3.443369    0.003963
  C     -2.078183   -2.701514    0.004702
  C     -2.209291   -1.280387    0.006155
  C     -3.515501   -0.664594    0.006796
  C     -3.736020    0.696018    0.008190
  C     -2.634265    1.607312    0.009109
  C     -2.600785    3.037145    0.010564
  C     -1.406100    3.745000    0.011264
  C     -0.135917    3.087519    0.010587
  C      1.192686    3.616121    0.011126
  C      2.280099    2.769233    0.010277
  C      2.192927    1.327627    0.008816
  C      3.376144    0.529661    0.008035
  C      3.471681   -0.840331    0.006650
  C      2.475884   -1.851012    0.005602
  C      0.325910   -0.540284    0.006909
  C     -1.392380    0.983971    0.008461
  C     -1.129975   -0.391228    0.007058
  C      1.020329   -1.712419    0.005737
  H      3.722985   -3.669468    0.003750
  H      1.436808   -5.023033    0.002369
  H     -1.065692   -4.521712    0.002862
  H     -3.009280   -3.260113    0.004122
  H     -4.373654   -1.328741    0.006127
  H     -4.754873    1.069427    0.008583
  H     -3.535211    3.588727    0.011143
  H     -1.441061    4.829526    0.012370
  H      1.354586    4.689102    0.012214
  H      3.274674    3.203213    0.010728
  H      4.313680    1.077375    0.008608
  H      4.486376   -1.232394    0.006270
  C      0.894516    0.808205    0.008273
  C     -0.185611    1.698936    0.009175

 Total Charge           Charge          ....    0
 Multiplicity           Mult            ....    1
 Number of Electrons    NEL             ....  156
 Basis Dimension        Dim             ....  600

ORBITAL ENERGIES
----------------

  NO   OCC          E(Eh)            E(eV)
   0   2.0000     -10.211330      -277.8644
   1   2.0000     -10.201008      -277.5835
   2   2.0000     -10.200978      -277.5827
   3   2.0000     -10.200172      -277.5608
   4   2.0000     -10.190614      -277.3007
   5   2.0000     -10.190602      -277.3004
   6   2.0000     -10.189918      -277.2818
   7   2.0000     -10.189914      -277.2817
   8   2.0000     -10.189011      -277.2571
   9   2.0000     -10.189000      -277.2568
  10   2.0000     -10.187151      -277.2065
  11   2.0000     -10.186585      -277.1911
  12   2.0000     -10.186107      -277.1781
  13   2.0000     -10.186106      -277.1780
  14   2.0000     -10.183951      -277.1194
  15   2.0000     -10.183938      -277.1191
  16   2.0000     -10.182398      -277.0771
  17   2.0000     -10.182367      -277.0763
  18   2.0000     -10.178889      -276.9816
  19   2.0000     -10.178864      -276.9810
  20   2.0000     -10.171927      -276.7922
  21   2.0000     -10.171414      -276.7782
  22   2.0000     -10.171151      -276.7711
  23   2.0000     -10.170638      -276.7571
  24   2.0000      -0.921764       -25.0825
  25   2.0000      -0.885310       -24.0905
  26   2.0000      -0.866416       -23.5764
  27   2.0000      -0.841018       -22.8853
  28   2.0000      -0.822761       -22.3885
  29   2.0000      -0.814928       -22.1753
  30   2.0000      -0.780374       -21.2351
  31   2.0000      -0.767375       -20.8813
  32   2.0000      -0.756943       -20.5975
  33   2.0000      -0.730212       -19.8701
  34   2.0000      -0.724753       -19.7215
  35   2.0000      -0.706570       -19.2268
  36   2.0000      -0.671735       -18.2788
  37   2.0000      -0.643190       -17.5021
  38   2.0000      -0.637220       -17.3396
  39   2.0000      -0.628382       -17.0991
  40   2.0000      -0.599520       -16.3138
  41   2.0000      -0.587793       -15.9946
  42   2.0000      -0.572961       -15.5911
  43   2.0000      -0.546960       -14.8835
  44   2.0000      -0.539977       -14.6935
  45   2.0000      -0.527445       -14.3525
  46   2.0000      -0.518042       -14.0966
  47   2.0000      -0.503535       -13.7019
  48   2.0000      -0.471100       -12.8193
  49   2.0000      -0.470646       -12.8069
  50   2.0000      -0.465386       -12.6638
  51   2.0000      -0.459813       -12.5122
  52   2.0000      -0.447549       -12.1784
  53   2.0000      -0.436443       -11.8762
  54   2.0000      -0.436336       -11.8733
  55   2.0000      -0.426948       -11.6179
  56   2.0000      -0.420971       -11.4552
  57   2.0000      -0.413124       -11.2417
  58   2.0000      -0.408593       -11.1184
  59   2.0000      -0.395115       -10.7516
  60   2.0000      -0.386541       -10.5183
  61   2.0000      -0.383203       -10.4275
  62   2.0000      -0.381594       -10.3837
  63   2.0000      -0.373350       -10.1594
  64   2.0000      -0.366809        -9.9814
  65   2.0000      -0.364509        -9.9188
  66   2.0000      -0.359167        -9.7734
  67   2.0000      -0.345506        -9.4017
  68   2.0000      -0.339686        -9.2433
  69   2.0000      -0.328775        -8.9464
  70   2.0000      -0.327959        -8.9242
  71   2.0000      -0.322579        -8.7778
  72   2.0000      -0.275652        -7.5009
  73   2.0000      -0.275383        -7.4936
  74   2.0000      -0.260468        -7.0877
  75   2.0000      -0.234388        -6.3780
  76   2.0000      -0.218331        -5.9411
  77   2.0000      -0.189061        -5.1446
  78   0.0000      -0.096085        -2.6146
  79   0.0000      -0.063555        -1.7294
  80   0.0000      -0.062720        -1.7067
  81   0.0000      -0.019123        -0.5204
  82   0.0000      -0.001999        -0.0544

MULLIKEN ATOMIC CHARGES
-----------------------
   0 C :   -1.092247
   1 C :   -0.837324
   2 C :    3.475218
   3 C :    0.349928
   4 C :    0.378056
   5 C :    1.500828
   6 C :    0.190042
   7 C :   -1.364812
   8 C :    2.603731
   9 C :    0.207475
  10 C :    0.395849
  11 C :    2.103112
  12 C :   -1.371789
  13 C :    0.164106
  14 C :    1.557250
  15 C :    0.312412
  16 C :    0.452525
  17 C :    3.602085
  18 C :   -0.611723
  19 C :   -2.371936
  20 C :   -0.965400
  21 C :   -7.094712
  22 H :    0.123425
  23 H :    0.122854
  24 H :    0.129445
  25 H :    0.122898
  26 H :    0.126791
  27 H :    0.133394
  28 H :    0.127927
  29 H :    0.127832
  30 H :    0.133634
  31 H :    0.125495
  32 H :    0.123597
  33 H :    0.128524
  34 C :   -1.107856
  35 C :   -2.000635
Sum of atomic charges:    0.0000000

LOEWDIN ATOMIC CHARGES
----------------------
   0 C :   -0.048408
   1 C :   -0.048393
   2 C :   -0.092565
   3 C :   -0.016994
   4 C :   -0.068692
   5 C :   -0.043752
   6 C :   -0.034095
   7 C :   -0.019472
   8 C :   -0.070572
   9 C :   -0.033949
  10 C :   -0.033910
  11 C :   -0.070597
  12 C :   -0.019474
  13 C :   -0.034069
  14 C :   -0.043711
  15 C :   -0.068749
  16 C :   -0.016981
  17 C :   -0.092526
  18 C :    0.038578
  19 C :   -0.034729
  20 C :   -0.038923
  21 C :    0.003066
  22 H :    0.076128
  23 H :    0.076124
  24 H :    0.085614
  25 H :    0.079535
  26 H :    0.080036
  27 H :    0.080536
  28 H :    0.079477
  29 H :    0.079481
  30 H :    0.080529
  31 H :    0.079982
  32 H :    0.079594
  33 H :    0.085580
  34 C :   -0.038938
  35 C :   -0.034760

  Mayer bond orders larger than 0.100000
B(  0-C ,  1-C ) :   2.0713 B(  0-C ,  2-C ) :  -3.0833 B(  0-C ,  3-C ) :  -1.2705
B(  0-C ,  4-C ) :  -0.2701 B(  0-C ,  8-C ) :  -0.4523 B(  0-C ,  9-C ) :  -0.1599
B(  0-C , 10-C ) :  -0.2045 B(  0-C , 11-C ) :  -0.3848 B(  0-C , 12-C ) :   0.1894
B(  0-C , 14-C ) :   0.3272 B(  0-C , 16-C ) :  -2.1685 B(  0-C , 17-C ) :  -4.1796
B(  0-C , 18-C ) :   0.7223 B(  0-C , 19-C ) :   0.7757 B(  0-C , 20-C ) :   0.4487
B(  0-C , 21-C ) :   7.9505 B(  0-C , 22-H ) :   1.3784 B(  0-C , 23-H ) :   0.1020
B(  0-C , 34-C ) :  -0.1540 B(  0-C , 35-C ) :   0.8976 B(  1-C ,  2-C ) :  -2.3946
B(  1-C ,  3-C ) :  -2.1700 B(  1-C ,  8-C ) :  -0.1484 B(  1-C ,  9-C ) :  -0.1218
B(  1-C , 11-C ) :   0.1313 B(  1-C , 13-C ) :   0.1226 B(  1-C , 14-C ) :  -0.3572
B(  1-C , 15-C ) :  -0.2505 B(  1-C , 16-C ) :  -0.9058 B(  1-C , 17-C ) :  -2.2198
B(  1-C , 18-C ) :   0.7368 B(  1-C , 19-C ) :   0.2964 B(  1-C , 21-C ) :   6.5819
B(  1-C , 23-H ) :   1.3221 B(  1-C , 34-C ) :   0.4486 B(  1-C , 35-C ) :  -0.2473
B(  2-C ,  3-C ) :   3.5757 B(  2-C ,  4-C ) :   1.4144 B(  2-C ,  5-C ) :   0.5654
B(  2-C ,  6-C ) :   0.1068 B(  2-C ,  8-C ) :   1.0990 B(  2-C ,  9-C ) :   0.1919
B(  2-C , 10-C ) :   0.5021 B(  2-C , 11-C ) :   1.0300 B(  2-C , 15-C ) :   0.5400
B(  2-C , 16-C ) :   1.3010 B(  2-C , 17-C ) :   5.8770 B(  2-C , 18-C ) :  -1.3148
B(  2-C , 19-C ) :  -1.5163 B(  2-C , 20-C ) :  -1.2340 B(  2-C , 21-C ) : -13.0328
B(  2-C , 22-H ) :  -0.4976 B(  2-C , 23-H ) :  -0.7016 B(  2-C , 34-C ) :   0.3966
B(  2-C , 35-C ) :  -1.4292 B(  3-C ,  4-C ) :   0.2109 B(  3-C ,  5-C ) :   0.5453
B(  3-C ,  6-C ) :  -0.2152 B(  3-C ,  7-C ) :   0.1364 B(  3-C ,  8-C ) :  -0.1949
B(  3-C ,  9-C ) :   0.2070 B(  3-C , 10-C ) :   0.2220 B(  3-C , 11-C ) :   0.7742
B(  3-C , 12-C ) :  -0.1431 B(  3-C , 14-C ) :   0.1219 B(  3-C , 15-C ) :   0.2675
B(  3-C , 16-C ) :   1.5596 B(  3-C , 17-C ) :   1.6795 B(  3-C , 18-C ) :  -0.3823
B(  3-C , 20-C ) :  -0.2278 B(  3-C , 21-C ) :  -3.9472 B(  3-C , 23-H ) :  -0.6184
B(  3-C , 24-H ) :   0.8552 B(  3-C , 34-C ) :   0.1080 B(  3-C , 35-C ) :  -1.3864
B(  4-C ,  5-C ) :   1.4763 B(  4-C ,  6-C ) :  -0.9578 B(  4-C ,  7-C ) :  -0.2984
B(  4-C ,  8-C ) :   0.4846 B(  4-C ,  9-C ) :  -0.1495 B(  4-C , 10-C ) :   0.2608
B(  4-C , 13-C ) :   0.1509 B(  4-C , 14-C ) :  -0.2831 B(  4-C , 15-C ) :  -0.3718
B(  4-C , 16-C ) :   0.2993 B(  4-C , 17-C ) :   0.5606 B(  4-C , 18-C ) :  -0.5019
B(  4-C , 19-C ) :  -0.4100 B(  4-C , 21-C ) :  -0.9401 B(  4-C , 24-H ) :  -0.1120
B(  4-C , 25-H ) :   1.2107 B(  4-C , 26-H ) :  -0.1467 B(  4-C , 34-C ) :  -0.1036
B(  4-C , 35-C ) :  -0.2106 B(  5-C ,  6-C ) :  -1.7553 B(  5-C ,  8-C ) :  -0.1424
B(  5-C ,  9-C ) :  -0.4832 B(  5-C , 10-C ) :   0.4567 B(  5-C , 12-C ) :  -0.4684
B(  5-C , 13-C ) :   0.2315 B(  5-C , 14-C ) :  -0.1167 B(  5-C , 15-C ) :  -0.2679
B(  5-C , 17-C ) :  -0.2378 B(  5-C , 18-C ) :  -1.2575 B(  5-C , 19-C ) :   1.4015
B(  5-C , 20-C ) :  -0.5285 B(  5-C , 21-C ) :   0.9338 B(  5-C , 25-H ) :  -0.4743
B(  5-C , 26-H ) :  -0.5485 B(  5-C , 27-H ) :   0.2492 B(  5-C , 34-C ) :  -0.1296
B(  6-C ,  7-C ) :  -1.0679 B(  6-C ,  8-C ) :   1.4306 B(  6-C ,  9-C ) :   1.0476
B(  6-C , 10-C ) :   0.1410 B(  6-C , 11-C ) :   0.2584 B(  6-C , 14-C ) :   0.2662
B(  6-C , 15-C ) :   0.1688 B(  6-C , 18-C ) :   0.3684 B(  6-C , 19-C ) :  -3.1305
B(  6-C , 20-C ) :   3.1673 B(  6-C , 21-C ) :  -0.1368 B(  6-C , 26-H ) :   1.1786
B(  6-C , 27-H ) :  -0.4953 B(  6-C , 34-C ) :   0.1423 B(  6-C , 35-C ) :  -0.3887
B(  7-C ,  8-C ) :  -2.5158 B(  7-C ,  9-C ) :  -2.0205 B(  7-C , 10-C ) :   0.1040
B(  7-C , 11-C ) :  -0.1215 B(  7-C , 14-C ) :  -0.6427 B(  7-C , 15-C ) :  -0.1308
B(  7-C , 17-C ) :   0.1937 B(  7-C , 19-C ) :   4.7879 B(  7-C , 21-C ) :   0.8780
B(  7-C , 27-H ) :   1.7640 B(  7-C , 28-H ) :  -0.1121 B(  7-C , 34-C ) :   0.2179
B(  7-C , 35-C ) :  -0.2003 B(  8-C ,  9-C ) :   1.5403 B(  8-C , 10-C ) :   0.2696
B(  8-C , 11-C ) :  -0.1175 B(  8-C , 12-C ) :  -0.1547 B(  8-C , 13-C ) :   0.2835
B(  8-C , 16-C ) :   1.2705 B(  8-C , 17-C ) :   1.9306 B(  8-C , 19-C ) :  -3.7536
B(  8-C , 20-C ) :  -0.3802 B(  8-C , 21-C ) :  -2.8615 B(  8-C , 27-H ) :  -1.0291
B(  8-C , 28-H ) :  -0.5003 B(  8-C , 34-C ) :   0.1729 B(  8-C , 35-C ) :  -0.5127
B(  9-C , 10-C ) :   0.6333 B(  9-C , 11-C ) :  -0.3070 B(  9-C , 12-C ) :   0.1418
B(  9-C , 14-C ) :   0.5997 B(  9-C , 15-C ) :   0.3788 B(  9-C , 16-C ) :   0.1474
B(  9-C , 17-C ) :   0.6180 B(  9-C , 18-C ) :  -0.1267 B(  9-C , 19-C ) :  -0.3954
B(  9-C , 20-C ) :   0.7461 B(  9-C , 21-C ) :  -1.4939 B(  9-C , 27-H ) :  -0.3513
B(  9-C , 28-H ) :   1.0822 B(  9-C , 34-C ) :  -0.7841 B(  9-C , 35-C ) :   0.6402
B( 10-C , 11-C ) :   1.5772 B( 10-C , 12-C ) :  -1.9957 B( 10-C , 13-C ) :   1.0099
B( 10-C , 14-C ) :  -0.5789 B( 10-C , 15-C ) :  -0.1853 B( 10-C , 16-C ) :   0.3544
B( 10-C , 17-C ) :   0.4210 B( 10-C , 18-C ) :  -0.2166 B( 10-C , 19-C ) :  -0.2182
B( 10-C , 20-C ) :  -0.6824 B( 10-C , 21-C ) :  -1.1637 B( 10-C , 29-H ) :   0.9991
B( 10-C , 30-H ) :  -0.3488 B( 10-C , 34-C ) :   0.5804 B( 10-C , 35-C ) :  -0.6152
B( 11-C , 12-C ) :  -2.4694 B( 11-C , 13-C ) :   1.1995 B( 11-C , 15-C ) :   0.5155
B( 11-C , 16-C ) :  -0.5208 B( 11-C , 17-C ) :   0.8255 B( 11-C , 21-C ) :  -2.0007
B( 11-C , 29-H ) :  -0.4619 B( 11-C , 30-H ) :  -0.9837 B( 11-C , 35-C ) :  -1.8645
B( 12-C , 13-C ) :  -0.8468 B( 12-C , 14-C ) :  -0.1638 B( 12-C , 15-C ) :  -0.2026
B( 12-C , 19-C ) :   0.2223 B( 12-C , 20-C ) :   0.2919 B( 12-C , 21-C ) :   0.5889
B( 12-C , 30-H ) :   1.7202 B( 12-C , 35-C ) :   4.3649 B( 13-C , 14-C ) :  -1.2608
B( 13-C , 15-C ) :  -0.8984 B( 13-C , 16-C ) :  -0.1702 B( 13-C , 18-C ) :   0.2983
B( 13-C , 19-C ) :  -0.4831 B( 13-C , 30-H ) :  -0.4329 B( 13-C , 31-H ) :   1.1672
B( 13-C , 34-C ) :   2.8908 B( 13-C , 35-C ) :  -2.5534 B( 14-C , 15-C ) :   1.1559
B( 14-C , 16-C ) :   0.7190 B( 14-C , 18-C ) :  -1.1601 B( 14-C , 19-C ) :   0.3667
B( 14-C , 21-C ) :   0.4166 B( 14-C , 30-H ) :   0.2176 B( 14-C , 31-H ) :  -0.5269
B( 14-C , 32-H ) :  -0.4751 B( 14-C , 34-C ) :  -0.4639 B( 14-C , 35-C ) :   1.1541
B( 15-C , 16-C ) :   0.1878 B( 15-C , 17-C ) :   1.0619 B( 15-C , 18-C ) :  -0.4318
B( 15-C , 19-C ) :  -0.1287 B( 15-C , 20-C ) :   0.1299 B( 15-C , 21-C ) :  -0.8007
B( 15-C , 31-H ) :  -0.1703 B( 15-C , 32-H ) :   1.2239 B( 15-C , 33-H ) :  -0.2403
B( 15-C , 35-C ) :  -0.4563 B( 16-C , 17-C ) :   4.0823 B( 16-C , 18-C ) :  -0.3023
B( 16-C , 19-C ) :  -2.0859 B( 16-C , 21-C ) :  -3.8263 B( 16-C , 22-H ) :  -0.5070
B( 16-C , 32-H ) :  -0.1275 B( 16-C , 33-H ) :   0.9807 B( 16-C , 34-C ) :  -0.4075
B( 16-C , 35-C ) :   0.1318 B( 17-C , 18-C ) :  -1.2518 B( 17-C , 19-C ) :  -3.2277
B( 17-C , 20-C ) :   0.5245 B( 17-C , 21-C ) : -14.3388 B( 17-C , 22-H ) :  -0.8803
B( 17-C , 23-H ) :  -0.4823 B( 17-C , 33-H ) :  -0.1671 B( 17-C , 34-C ) :  -0.7722
B( 17-C , 35-C ) :  -1.3060 B( 18-C , 19-C ) :  -1.0880 B( 18-C , 20-C ) :   2.0239
B( 18-C , 21-C ) :   8.0155 B( 18-C , 22-H ) :   0.1027 B( 18-C , 23-H ) :   0.1041
B( 18-C , 34-C ) :   1.9019 B( 18-C , 35-C ) :  -1.1405 B( 19-C , 20-C ) :   0.2211
B( 19-C , 21-C ) :   3.9531 B( 19-C , 27-H ) :   1.2257 B( 19-C , 28-H ) :   0.6097
B( 19-C , 34-C ) :  -0.4996 B( 19-C , 35-C ) :   4.5908 B( 20-C , 21-C ) :   1.1600
B( 20-C , 25-H ) :   0.2840 B( 20-C , 26-H ) :   0.4694 B( 20-C , 27-H ) :  -0.3822
B( 20-C , 34-C ) :   0.1173 B( 20-C , 35-C ) :  -0.4340 B( 21-C , 22-H ) :   1.3316
B( 21-C , 23-H ) :   1.3059 B( 21-C , 24-H ) :   0.3612 B( 21-C , 33-H ) :   0.4246
B( 21-C , 34-C ) :   1.5963 B( 21-C , 35-C ) :   2.9659 B( 29-H , 35-C ) :   0.5956
B( 30-H , 34-C ) :  -0.3428 B( 30-H , 35-C ) :   1.1516 B( 31-H , 34-C ) :   0.4855
B( 32-H , 34-C ) :   0.2848 B( 34-C , 35-C ) :   0.2239

-----------------------------------------------------------------------------
         ABSORPTION SPECTRUM VIA TRANSITION ELECTRIC DIPOLE MOMENTS
-----------------------------------------------------------------------------
State   Energy    Wavelength  fosc         T2        TX        TY        TZ
        (cm-1)      (nm)                 (au**2)    (au)      (au)      (au)
-----------------------------------------------------------------------------
   1   14694.2    680.5   0.008951201   0.20054   0.38536   0.22813   0.00024
   2   22120.6    452.1   0.000063619   0.00095   0.01530  -0.02670  -0.00002
   3   24371.2    410.3   0.014736335   0.19906   0.38393   0.22729   0.00023
   4   24892.8    401.7   0.068412596   0.90477   0.81796   0.48550   0.00051
   5   25604.0    390.6   0.101424447   1.30410   0.58233  -0.98234  -0.00099
   6   29847.6    335.0   0.019431870   0.21433  -0.23665   0.39790   0.00041
   7   30911.6    323.5   0.037312548   0.39738   0.54227   0.32144   0.00032
   8   32293.0    309.7   0.032067959   0.32692  -0.49187  -0.29152  -0.00030
   9   33551.7    298.0   0.056596847   0.55533   0.38036  -0.64083  -0.00065
  10   34079.7    293.4   0.012772290   0.12338   0.30206   0.17929   0.00019
  11   34655.0    288.6   0.013521995   0.12845   0.18260  -0.30840  -0.00031
  12   36962.8    270.5   0.350617896   3.12281  -1.52297  -0.89632  -0.00091
  13   37052.8    269.9   0.304826881   2.70837   0.83302  -1.41931  -0.00143
  14   37141.2    269.2   0.000001864   0.00002  -0.00037   0.00023   0.00404
  15   38073.8    262.6   0.016982330   0.14684  -0.33173  -0.19182  -0.00021
  16   38109.2    262.4   0.000164187   0.00142  -0.00021  -0.00018   0.03766
  17   38337.0    260.8   0.000068105   0.00058  -0.00991   0.02206   0.00003
  18   38591.7    259.1   0.001251721   0.01068   0.00000  -0.00007   0.10333
  19   39094.8    255.8   0.058389535   0.49169   0.35643  -0.60386  -0.00061
  20   39505.2    253.1   0.000000442   0.00000   0.00001  -0.00001   0.00192
  21   41252.4    242.4   0.429759740   3.42966   0.94396  -1.59330  -0.00161
  22   41494.1    241.0   0.000000000   0.00000  -0.00000   0.00000  -0.00000
  23   41494.1    241.0   0.000000000   0.00000  -0.00000   0.00000   0.00000
  24   41494.1    241.0   0.000000000   0.00000  -0.00000   0.00000  -0.00000
  25   41494.1    241.0   0.000000000   0.00000  -0.00000   0.00000  -0.00000
  26   41494.1    241.0   0.000000000   0.00000  -0.00000   0.00000   0.00000
  27   41648.4    240.1   0.000014083   0.00011  -0.00000  -0.00001   0.01055
  28   41665.6    240.0   0.010778668   0.08517  -0.14598   0.25269   0.00026
  29   41809.4    239.2   0.012930818   0.10182   0.27407   0.16342   0.00016
  30   41967.6    238.3   0.000000001   0.00000  -0.00001  -0.00000   0.00008
  31   42806.4    233.6   0.000000107   0.00000   0.00000   0.00002   0.00091
  32   43514.1    229.8   0.001258228   0.00952  -0.00011   0.00005   0.09757
  33   43708.2    228.8   0.000005539   0.00004  -0.00098  -0.00639  -0.00000
  34   43869.6    227.9   1.458765022  10.94705  -1.68741   2.84600   0.00288
  35   44265.7    225.9   0.000005424   0.00004  -0.00021   0.00043  -0.00633
  36   44743.1    223.5   0.001205833   0.00887   0.00003  -0.00024   0.09419
  37   44987.9    222.3   0.002084481   0.01525   0.10588   0.06359   0.00007
  38   45087.1    221.8   0.000293689   0.00214   0.00001   0.00011   0.04631
  39   45300.1    220.7   0.000113190   0.00082  -0.00004  -0.00007   0.02868
  40   45432.6    220.1   0.000418058   0.00303  -0.00177  -0.00121   0.05500
  41   45448.4    220.0   0.243931168   1.76695   1.14253   0.67939   0.00078
  42   45586.7    219.4   0.000512009   0.00370  -0.00001   0.00013  -0.06081
  43   46020.2    217.3   0.032391231   0.23172  -0.24126   0.41654   0.00043
  44   46322.0    215.9   0.000143652   0.00102   0.00003  -0.00000   0.03195
  45   46731.3    214.0   0.099130228   0.69835   0.72194   0.42089   0.00044
  46   46930.3    213.1   0.000025043   0.00018  -0.00019  -0.00012   0.01325
  47   47073.3    212.4   0.018057637   0.12629   0.17935  -0.30679  -0.00032
  48   47389.8    211.0   0.478389580   3.32332  -1.56650  -0.93241  -0.00096
  49   47674.1    209.8   0.019806581   0.13677   0.19152  -0.31638  -0.00032
  50   47918.1    208.7   0.000000000   0.00000   0.00000   0.00000   0.00000
  51   47918.1    208.7   0.000000000   0.00000  -0.00000  -0.00000  -0.00000
  52   47918.1    208.7   0.000000000   0.00000  -0.00000  -0.00000  -0.00000
  53   47918.1    208.7   0.000000000   0.00000   0.00000   0.00000   0.00000
  54   47918.1    208.7   0.000000000   0.00000   0.00000  -0.00000   0.00000
  55   47970.3    208.5   0.001223305   0.00840   0.00005   0.00001  -0.09163
  56   48236.1    207.3   1.036173314   7.07189   2.24958   1.41820   0.00137
  57   48253.8    207.2   0.013082062   0.08925  -0.00021   0.00031  -0.29875
  58   48276.8    207.1   0.725817122   4.94953  -1.20430   1.87061   0.00190
  59   48348.6    206.8   0.000577316   0.00393   0.00177   0.00121   0.06266
  60   49018.3    204.0   0.000011692   0.00008   0.00031  -0.00043  -0.00885
  61   49127.8    203.6   0.411038375   2.75442  -0.84681   1.42735   0.00143
  62   49204.7    203.2   0.000185706   0.00124   0.00007   0.00003  -0.03525
  63   49378.6    202.5   0.000003380   0.00002  -0.00001   0.00005  -0.00475
  64   49598.4    201.6   0.005446464   0.03615   0.00001  -0.00017   0.19013
  65   49755.2    201.0   0.003936049   0.02604  -0.00009   0.00011  -0.16138
  66   49820.5    200.7   0.000521556   0.00345   0.00002  -0.00009   0.05871
  67   49841.1    200.6   0.000011872   0.00008   0.00004  -0.00004   0.00886
  68   50117.0    199.5   0.153870109   1.01075   0.86895   0.50565   0.00056
  69   50153.5    199.4   0.003769253   0.02474   0.00041   0.00021  -0.15729
  70   50264.7    198.9   0.000004313   0.00003   0.00020  -0.00030  -0.00530
  71   50320.5    198.7   0.085449530   0.55904   0.37729  -0.64551  -0.00066
  72   50841.8    196.7   0.000450621   0.00292   0.00006  -0.00004   0.05402
  73   51188.4    195.4   0.031917443   0.20527   0.23304  -0.38854  -0.00040
  74   51434.6    194.4   0.111321238   0.71252   0.72501   0.43229   0.00045
  75   51442.2    194.4   0.000000000   0.00000   0.00000   0.00000   0.00000
  76   51442.2    194.4   0.000000000   0.00000  -0.00000  -0.00000  -0.00000
  77   51442.2    194.4   0.000000000   0.00000   0.00000   0.00000  -0.00000
  78   51442.2    194.4   0.000000000   0.00000  -0.00000  -0.00000   0.00000
  79   51442.2    194.4   0.000000000   0.00000   0.00000   0.00000   0.00000
  80   51459.8    194.3   0.000166317   0.00106   0.00013   0.00016  -0.03262
  81   51615.6    193.7   0.000348000   0.00222   0.00003   0.00003  -0.04711
  82   51646.0    193.6   0.001276129   0.00813   0.00001   0.00017  -0.09019
  83   51656.0    193.6   0.009445946   0.06020   0.13095  -0.20749  -0.00024
  84   51907.5    192.7   0.000318065   0.00202   0.00001   0.00006  -0.04491
  85   51948.6    192.5   0.003218461   0.02040  -0.00002  -0.00011   0.14282
  86   52098.4    191.9   0.035386190   0.22361  -0.24368   0.40525   0.00043
  87   52118.2    191.9   0.000332158   0.00210   0.00020  -0.00042   0.04580
  88   52718.9    189.7   0.022619733   0.14125  -0.32016  -0.19685  -0.00021
  89   53075.1    188.4   0.000602491   0.00374   0.00002  -0.00007  -0.06113
  90   53297.5    187.6   0.032852112   0.20292  -0.38597  -0.23227  -0.00022
  91   53406.5    187.2   0.000000305   0.00000   0.00000   0.00002  -0.00137
  92   53581.3    186.6   0.001202787   0.00739  -0.07271  -0.04587  -0.00012
  93   53589.2    186.6   0.000216382   0.00133   0.00015   0.00010  -0.03646
  94   53619.2    186.5   0.000169906   0.00104   0.00003   0.00015  -0.03230
  95   53673.6    186.3   0.003052664   0.01872  -0.06248   0.12174   0.00012
  96   53784.8    185.9   0.000016744   0.00010   0.00017   0.00021   0.01012
  97   53813.3    185.8   0.094266837   0.57669   0.65471   0.38477   0.00040
  98   54072.4    184.9   0.000941701   0.00573   0.03869  -0.06509  -0.00005
  99   54193.1    184.5   0.001877239   0.01140  -0.05550   0.09123   0.00009
 100   54225.8    184.4   0.102829447   0.62429  -0.68080  -0.40100  -0.00042
 101   54280.8    184.2   0.000027804   0.00017  -0.00137   0.00252  -0.01266
 102   54764.5    182.6   0.000227715   0.00137  -0.00002   0.00005  -0.03700
 103   54939.4    182.0   0.003879525   0.02325   0.12696   0.08442   0.00008
 104   54962.4    181.9   0.474236419   2.84057  -0.85996   1.44949   0.00159
 105   55113.9    181.4   0.011402477   0.06811   0.00024  -0.00067   0.26098
 106   55206.7    181.1   0.053909506   0.32148   0.28457  -0.49040   0.00013
 107   55213.2    181.1   0.004113681   0.02453   0.00106  -0.00165  -0.15660
 108   55309.3    180.8   0.000256020   0.00152   0.00002   0.00002  -0.03904
 109   55496.7    180.2   0.000058956   0.00035  -0.01605  -0.00960  -0.00001
 110   55690.2    179.6   0.000455910   0.00270  -0.00000   0.00008  -0.05191
 111   55871.1    179.0   0.000380203   0.00224  -0.00000  -0.00003   0.04733
 112   55967.8    178.7   0.000231179   0.00136   0.00000  -0.00005   0.03688
 113   56094.2    178.3   0.002286677   0.01342  -0.00000  -0.00009   0.11585
 114   56248.8    177.8   0.000158422   0.00093   0.00002   0.00008  -0.03045
 115   56279.6    177.7   0.000240658   0.00141   0.00012   0.00007  -0.03752
 116   56284.1    177.7   0.000060141   0.00035   0.00009   0.00016   0.01875
 117   56333.1    177.5   0.000042691   0.00025  -0.00003   0.00022  -0.01579
 118   56365.8    177.4   0.000011270   0.00007   0.00001  -0.00005   0.00811
 119   56505.1    177.0   0.206454210   1.20285   0.94091   0.56351   0.00057
 120   56637.7    176.6   0.262998800   1.52870  -0.63248   1.06239   0.00107
 121   56951.2    175.6   0.019516720   0.11282   0.16844  -0.29060  -0.00029
 122   57079.3    175.2   0.104995707   0.60558  -0.40007   0.66747   0.00067
 123   57163.7    174.9   0.135328504   0.77937   0.76014   0.44895   0.00045
 124   57166.1    174.9   0.000000000   0.00000  -0.00000  -0.00000  -0.00000
 125   57166.1    174.9   0.000000000   0.00000  -0.00000  -0.00000   0.00000
 126   57166.1    174.9   0.000000000   0.00000   0.00000   0.00000   0.00000
 127   57166.1    174.9   0.000000000   0.00000   0.00000   0.00000  -0.00000
 128   57166.1    174.9   0.000000000   0.00000  -0.00000  -0.00000   0.00000
 129   57180.9    174.9   0.000706541   0.00407  -0.00016   0.00024  -0.06378
 130   57295.8    174.5   0.000052216   0.00030   0.00007  -0.00009  -0.01732
 131   57362.8    174.3   0.000000164   0.00000   0.00006  -0.00010   0.00096
 132   57555.7    173.7   0.000012663   0.00007  -0.00029  -0.00020  -0.00850
 133   57560.3    173.7   0.007280970   0.04164  -0.17321  -0.10790  -0.00010
 134   57583.2    173.7   0.000000955   0.00001   0.00012  -0.00000   0.00233
 135   57733.0    173.2   0.002049959   0.01169  -0.00000   0.00006  -0.10812
 136   57755.6    173.1   0.000154530   0.00088   0.00004  -0.00009  -0.02968
 137   57827.3    172.9   0.000967797   0.00551   0.06568   0.03459  -0.00006
 138   57868.0    172.8   0.000003614   0.00002  -0.00003   0.00005   0.00453
 139   57913.5    172.7   0.000749904   0.00426  -0.00012   0.00020  -0.06529
 140   58089.1    172.1   0.001309669   0.00742  -0.00011  -0.00001  -0.08615
 141   58233.5    171.7   0.000025728   0.00015   0.00001  -0.00003   0.01206
 142   58388.9    171.3   0.000075082   0.00042   0.00019   0.00013  -0.02057
 143   58404.6    171.2   0.002190407   0.01235  -0.09878  -0.05088  -0.00007
 144   58517.4    170.9   0.017493802   0.09842   0.16072  -0.26942  -0.00188
 145   58519.3    170.9   0.000950507   0.00535   0.00313  -0.00613   0.07280
 146   58597.8    170.7   0.311757057   1.75150   1.14007   0.67212   0.00069
 147   58717.9    170.3   0.000164316   0.00092   0.00012   0.00007   0.03035
 148   58922.3    169.7   0.014882875   0.08315   0.14391  -0.24989  -0.00028
 149   59150.6    169.1   0.000025281   0.00014  -0.00001   0.00003   0.01186
 150   59322.3    168.6   0.000051584   0.00029  -0.00026   0.00027   0.01692
 151   59344.4    168.5   0.250374312   1.38895  -0.60187   1.01326   0.00102
 152   59534.6    168.0   0.000010160   0.00006  -0.00004  -0.00010  -0.00749
 153   59611.2    167.8   0.000009497   0.00005   0.00000   0.00005  -0.00724
 154   59624.2    167.7   0.000004568   0.00003   0.00003   0.00013  -0.00502
 155   59716.8    167.5   0.000033461   0.00018   0.00017   0.00007   0.01358
 156   59815.7    167.2   0.000415621   0.00229  -0.00016   0.00001  -0.04783
 157   59869.6    167.0   0.195863386   1.07702  -0.89100  -0.53211  -0.00052
 158   60098.7    166.4   0.046685798   0.25574  -0.26404   0.43130   0.00047
 159   60220.4    166.1   0.000059367   0.00032   0.00002   0.00008  -0.01802
 160   60299.5    165.8   0.004868345   0.02658   0.00002   0.00027  -0.16303
 161   60439.7    165.5   0.000000000   0.00000   0.00000  -0.00000   0.00000
 162   60439.7    165.5   0.000000000   0.00000   0.00000   0.00000  -0.00000
 163   60439.7    165.5   0.000000000   0.00000  -0.00000   0.00000  -0.00000
 164   60439.7    165.5   0.000000000   0.00000  -0.00000   0.00000  -0.00000
 165   60439.7    165.5   0.000000000   0.00000   0.00000   0.00000   0.00000
 166   60450.0    165.4   0.002344018   0.01277  -0.00005   0.00009  -0.11298
 167   60498.7    165.3   0.000000000   0.00000  -0.00000   0.00000  -0.00000
 168   60498.7    165.3   0.000000000   0.00000  -0.00000   0.00000   0.00000
 169   60498.7    165.3   0.000000000   0.00000   0.00000   0.00000   0.00000
 170   60498.7    165.3   0.000000000   0.00000   0.00000  -0.00000   0.00000
 171   60498.7    165.3   0.000000000   0.00000  -0.00000  -0.00000   0.00000
 172   60566.1    165.1   0.000002579   0.00001  -0.00001  -0.00002  -0.00374
 173   60573.5    165.1   0.000042575   0.00023   0.00004  -0.00001   0.01521
 174   60624.8    164.9   0.000001635   0.00001   0.00001  -0.00001   0.00298
 175   60927.2    164.1   0.000016838   0.00009   0.00005  -0.00003  -0.00954
 176   61002.3    163.9   0.000222368   0.00120  -0.03038  -0.01665   0.00001
 177   61168.2    163.5   0.000007204   0.00004   0.00003  -0.00000  -0.00623
 178   61176.2    163.5   0.000081095   0.00044   0.00001  -0.00009   0.02089
 179   61235.8    163.3   0.003367741   0.01811   0.06987  -0.11499  -0.00013
 180   61354.0    163.0   0.000014283   0.00008   0.00003   0.00003  -0.00875
 181   61675.5    162.1   0.000115814   0.00062  -0.00297   0.00506  -0.02416
 182   61688.4    162.1   0.212519575   1.13415  -0.54440   0.91530   0.00107
 183   61758.9    161.9   0.000000556   0.00000  -0.00002  -0.00001  -0.00172
 184   61943.4    161.4   0.000338550   0.00180   0.02245  -0.03599  -0.00003
 185   62027.3    161.2   0.000050953   0.00027   0.00008   0.00003  -0.01644
 186   62097.0    161.0   0.000006836   0.00004   0.00005  -0.00005   0.00602
 187   62172.6    160.8   0.021295536   0.11276   0.28498   0.17762   0.00021
 188   62332.8    160.4   0.004465868   0.02359   0.00010   0.00022  -0.15358
 189   62348.3    160.4   0.017998914   0.09504   0.26436   0.15860   0.00022
 190   62503.1    160.0   0.002032659   0.01071  -0.00025   0.00012  -0.10347
 191   62527.6    159.9   0.058211865   0.30649  -0.47935  -0.27697  -0.00023
 192   62689.9    159.5   0.072031763   0.37827  -0.31303   0.52942   0.00059
 193   62799.0    159.2   0.002949917   0.01546   0.00004   0.00021  -0.12436
 194   62876.0    159.0   0.002254650   0.01181  -0.00003   0.00010  -0.10865
 195   62972.7    158.8   0.000161156   0.00084   0.00006   0.00000  -0.02903
 196   62992.7    158.7   0.000081603   0.00043   0.00003   0.00002  -0.02065

Dispersion correction           -0.103732327
FINAL SINGLE POINT ENERGY      -921.464612594911

DIPOLE MOMENT
-------------
                                X             Y             Z
Electronic contribution:     -0.51434       0.86973       0.00079
Nuclear contribution   :      0.37438      -0.63369      -0.00054
                        -----------------------------------------
Total Dipole Moment    :     -0.13996       0.23604       0.00025
                        -----------------------------------------
Magnitude (a.u.)       :      0.27441
Magnitude (Debye)      :      0.69749

Rotational constants in cm-1:     0.012900     0.009358     0.005423
Rotational constants in MHz :   386.723651   280.532199   162.588962

                             ****ORCA TERMINATED NORMALLY****
TOTAL RUN TIME: 0 days 6 hours 25 minutes 1 seconds 195 msec
