                         Program Version 5.0.4 -  RELEASE  -
|  1> !b3lyp 6-311+g** d4
|  2>
|  3> %maxcore 5000
|  4> %pal
|  5> nprocs 8
|  6> end
|  7>
|  8> %tddft
|  9>   nroots 1000
| 10>   end
| 11>
| 12> * xyz 0 1
| 13>   C   2.38176577478174     -2.80604465461656     -0.00001343939367
| 14>   C   1.32578443596252     -3.44045494695259     -0.00004080802389
| 15>   C   0.03409560722768     -2.93814352559578     -0.00011167045750
| 16>   C   -1.24451111338805     -3.47728892405310     -0.00015327822909
| 17>   C   -2.31850588614105     -2.87667941311949     -0.00021797345824
| 18>   C   -2.52373103817797     -1.50385247861538     -0.00027045265000
| 19>   C   -3.62603423024341     -0.66377274905051     -0.00034314972686
| 20>   C   -3.63564495832900      0.56802232480521     -0.00038133316261
| 21>   C   -2.54884998050652      1.42813823006206     -0.00035826757006
| 22>   C   -2.36262152063186      2.80796656837341     -0.00039320891087
| 23>   C   -1.27939757174994      3.38928529613664     -0.00036254008165
| 24>   C   0.01781394036379      2.87142753238684     -0.00029086748466
| 25>   C   1.22857899604254      3.58807962257957     -0.00025892876174
| 26>   C   2.42159228519388      2.91915379389964     -0.00018802778808
| 27>   C   2.44144607677826      1.51239666271349     -0.00014397081843
| 28>   C   3.55930386153896      0.67529817483180     -0.00007118884636
| 29>   C   3.62963219266427     -0.55203090829492     -0.00002969665187
| 30>   C   2.54894583580589     -1.43006620787101     -0.00005066085921
| 31>   C   1.25140198121826     -0.72015586582872     -0.00012494412784
| 32>   C   1.22392405651188      0.72216065691158     -0.00017700685684
| 33>   C   -0.02133310699844      1.42060495979096     -0.00024524930685
| 34>   C   -1.26617154458923      0.69161335582824     -0.00028404966724
| 35>   C   -1.24784520734046     -0.74897998858116     -0.00023321451590
| 36>   C   0.01272779528317     -1.45582862845954     -0.00016314148399
| 37>   H   1.19185707821147      4.66982621784994     -0.00029356663862
| 38>   H   3.36365155895983      3.45210651386760     -0.00016221476972
| 39> **                         ****END OF INPUT****

CARTESIAN COORDINATES (ANGSTROEM)
---------------------------------
  C      2.381766   -2.806045   -0.000013
  C      1.325784   -3.440455   -0.000041
  C      0.034096   -2.938144   -0.000112
  C     -1.244511   -3.477289   -0.000153
  C     -2.318506   -2.876679   -0.000218
  C     -2.523731   -1.503852   -0.000270
  C     -3.626034   -0.663773   -0.000343
  C     -3.635645    0.568022   -0.000381
  C     -2.548850    1.428138   -0.000358
  C     -2.362622    2.807967   -0.000393
  C     -1.279398    3.389285   -0.000363
  C      0.017814    2.871428   -0.000291
  C      1.228579    3.588080   -0.000259
  C      2.421592    2.919154   -0.000188
  C      2.441446    1.512397   -0.000144
  C      3.559304    0.675298   -0.000071
  C      3.629632   -0.552031   -0.000030
  C      2.548946   -1.430066   -0.000051
  C      1.251402   -0.720156   -0.000125
  C      1.223924    0.722161   -0.000177
  C     -0.021333    1.420605   -0.000245
  C     -1.266172    0.691613   -0.000284
  C     -1.247845   -0.748980   -0.000233
  C      0.012728   -1.455829   -0.000163
  H      1.191857    4.669826   -0.000294
  H      3.363652    3.452107   -0.000162

 Total Charge           Charge          ....    0
 Multiplicity           Mult            ....    1
 Number of Electrons    NEL             ....  146
 Basis Dimension        Dim             ....  540

ORBITAL ENERGIES
----------------

  NO   OCC          E(Eh)            E(eV)
   0   2.0000     -10.259936      -279.1871
   1   2.0000     -10.259923      -279.1867
   2   2.0000     -10.259899      -279.1860
   3   2.0000     -10.259879      -279.1855
   4   2.0000     -10.240526      -278.6589
   5   2.0000     -10.240169      -278.6492
   6   2.0000     -10.240150      -278.6487
   7   2.0000     -10.240147      -278.6486
   8   2.0000     -10.237728      -278.5827
   9   2.0000     -10.237721      -278.5826
  10   2.0000     -10.233672      -278.4724
  11   2.0000     -10.233243      -278.4607
  12   2.0000     -10.210302      -277.8365
  13   2.0000     -10.210134      -277.8319
  14   2.0000     -10.210092      -277.8307
  15   2.0000     -10.209763      -277.8218
  16   2.0000     -10.209641      -277.8185
  17   2.0000     -10.208293      -277.7818
  18   2.0000     -10.208202      -277.7793
  19   2.0000     -10.208181      -277.7787
  20   2.0000     -10.208138      -277.7776
  21   2.0000     -10.207798      -277.7683
  22   2.0000     -10.204119      -277.6682
  23   2.0000     -10.204068      -277.6668
  24   2.0000      -0.946227       -25.7481
  25   2.0000      -0.914365       -24.8811
  26   2.0000      -0.913050       -24.8454
  27   2.0000      -0.869095       -23.6493
  28   2.0000      -0.867303       -23.6005
  29   2.0000      -0.840395       -22.8683
  30   2.0000      -0.824628       -22.4393
  31   2.0000      -0.798912       -21.7395
  32   2.0000      -0.773605       -21.0509
  33   2.0000      -0.765915       -20.8416
  34   2.0000      -0.753534       -20.5047
  35   2.0000      -0.751633       -20.4530
  36   2.0000      -0.676248       -18.4016
  37   2.0000      -0.669977       -18.2310
  38   2.0000      -0.654597       -17.8125
  39   2.0000      -0.647477       -17.6187
  40   2.0000      -0.642949       -17.4955
  41   2.0000      -0.585109       -15.9216
  42   2.0000      -0.561626       -15.2826
  43   2.0000      -0.558241       -15.1905
  44   2.0000      -0.549253       -14.9459
  45   2.0000      -0.543646       -14.7934
  46   2.0000      -0.531285       -14.4570
  47   2.0000      -0.513019       -13.9600
  48   2.0000      -0.502328       -13.6690
  49   2.0000      -0.488818       -13.3014
  50   2.0000      -0.482325       -13.1247
  51   2.0000      -0.465681       -12.6718
  52   2.0000      -0.452906       -12.3242
  53   2.0000      -0.452692       -12.3184
  54   2.0000      -0.434165       -11.8142
  55   2.0000      -0.430144       -11.7048
  56   2.0000      -0.428215       -11.6523
  57   2.0000      -0.407520       -11.0892
  58   2.0000      -0.395977       -10.7751
  59   2.0000      -0.378915       -10.3108
  60   2.0000      -0.376332       -10.2405
  61   2.0000      -0.357865        -9.7380
  62   2.0000      -0.319848        -8.7035
  63   2.0000      -0.307834        -8.3766
  64   2.0000      -0.306580        -8.3425
  65   2.0000      -0.305904        -8.3241
  66   2.0000      -0.303803        -8.2669
  67   2.0000      -0.298756        -8.1296
  68   2.0000      -0.296767        -8.0754
  69   2.0000      -0.289508        -7.8779
  70   2.0000      -0.287885        -7.8338
  71   2.0000      -0.244932        -6.6649
  72   2.0000      -0.242998        -6.6123
  73   0.0000      -0.115902        -3.1539
  74   0.0000      -0.115321        -3.1380
  75   0.0000      -0.104160        -2.8343
  76   0.0000      -0.095847        -2.6081
  77   0.0000      -0.094934        -2.5833

MULLIKEN ATOMIC CHARGES
-----------------------
   0 C :   -0.033150
   1 C :   -1.045423
   2 C :    1.589645
   3 C :   -0.650513
   4 C :    0.022528
   5 C :    0.626166
   6 C :   -0.675321
   7 C :   -0.338017
   8 C :    1.789336
   9 C :   -0.137692
  10 C :   -0.709907
  11 C :    2.227978
  12 C :   -0.212774
  13 C :   -0.105441
  14 C :    1.195220
  15 C :   -0.237552
  16 C :   -0.452366
  17 C :    1.520381
  18 C :   -0.089838
  19 C :   -1.988085
  20 C :   -1.055174
  21 C :   -0.338055
  22 C :   -1.319639
  23 C :    0.120446
  24 H :    0.149004
  25 H :    0.148243
Sum of atomic charges:    0.0000000

LOEWDIN ATOMIC CHARGES
----------------------
   0 C :    0.027797
   1 C :    0.025752
   2 C :   -0.055836
   3 C :    0.026162
   4 C :    0.025591
   5 C :   -0.055686
   6 C :    0.025916
   7 C :    0.027603
   8 C :   -0.051641
   9 C :    0.012113
  10 C :    0.033599
  11 C :   -0.059344
  12 C :   -0.023779
  13 C :   -0.023801
  14 C :   -0.059456
  15 C :    0.034091
  16 C :    0.011691
  17 C :   -0.051621
  18 C :   -0.007728
  19 C :   -0.011650
  20 C :   -0.011698
  21 C :   -0.007689
  22 C :   -0.004360
  23 C :   -0.004184
  24 H :    0.089075
  25 H :    0.089080

  Mayer bond orders larger than 0.100000
B(  0-C ,  1-C ) :   0.4865 B(  0-C ,  2-C ) :   0.5704 B(  0-C ,  3-C ) :  -0.3880
B(  0-C ,  4-C ) :   0.4135 B(  0-C ,  6-C ) :   0.2384 B(  0-C ,  9-C ) :  -0.1360
B(  0-C , 10-C ) :  -0.2882 B(  0-C , 11-C ) :   0.3027 B(  0-C , 12-C ) :   0.2573
B(  0-C , 14-C ) :  -0.3264 B(  0-C , 15-C ) :  -0.2382 B(  0-C , 16-C ) :  -1.4455
B(  0-C , 17-C ) :  -1.0828 B(  0-C , 18-C ) :   1.4210 B(  0-C , 19-C ) :  -1.4559
B(  0-C , 20-C ) :   0.9945 B(  0-C , 21-C ) :  -0.4698 B(  0-C , 22-C ) :   0.3719
B(  0-C , 23-C ) :  -0.3918 B(  1-C ,  2-C ) :  -1.8644 B(  1-C ,  3-C ) :  -1.5122
B(  1-C ,  4-C ) :  -0.4023 B(  1-C ,  5-C ) :   0.1413 B(  1-C ,  8-C ) :  -0.8780
B(  1-C ,  9-C ) :   0.3509 B(  1-C , 10-C ) :   0.8145 B(  1-C , 11-C ) :  -0.5255
B(  1-C , 12-C ) :  -0.3299 B(  1-C , 14-C ) :   0.2086 B(  1-C , 16-C ) :  -0.2015
B(  1-C , 17-C ) :  -0.8636 B(  1-C , 18-C ) :  -0.7832 B(  1-C , 19-C ) :   1.9115
B(  1-C , 20-C ) :  -0.9917 B(  1-C , 21-C ) :   0.3979 B(  1-C , 22-C ) :   0.2095
B(  1-C , 23-C ) :   1.6072 B(  2-C ,  3-C ) :  -1.3124 B(  2-C ,  4-C ) :   0.8316
B(  2-C ,  5-C ) :  -0.3180 B(  2-C ,  7-C ) :   0.1507 B(  2-C ,  8-C ) :   0.8625
B(  2-C , 10-C ) :  -0.7298 B(  2-C , 11-C ) :   1.4372 B(  2-C , 12-C ) :   0.1405
B(  2-C , 13-C ) :   0.1394 B(  2-C , 15-C ) :   0.3137 B(  2-C , 16-C ) :  -0.2767
B(  2-C , 17-C ) :   0.5194 B(  2-C , 19-C ) :  -0.7202 B(  2-C , 20-C ) :  -0.8451
B(  2-C , 21-C ) :   0.7597 B(  2-C , 22-C ) :  -1.5627 B(  2-C , 23-C ) :  -0.3112
B(  3-C ,  6-C ) :  -0.4529 B(  3-C ,  7-C ) :   0.3201 B(  3-C , 11-C ) :   0.1806
B(  3-C , 19-C ) :  -0.3011 B(  3-C , 20-C ) :  -0.3737 B(  3-C , 21-C ) :   1.3835
B(  3-C , 22-C ) :  -1.2156 B(  3-C , 23-C ) :   1.2301 B(  4-C ,  5-C ) :  -0.9174
B(  4-C ,  6-C ) :  -1.3182 B(  4-C ,  7-C ) :  -0.3175 B(  4-C ,  8-C ) :  -0.1385
B(  4-C , 11-C ) :   0.1740 B(  4-C , 18-C ) :  -0.5974 B(  4-C , 19-C ) :   0.2685
B(  4-C , 20-C ) :   0.9903 B(  4-C , 21-C ) :  -1.8969 B(  4-C , 22-C ) :   1.7737
B(  4-C , 23-C ) :   0.2027 B(  5-C ,  6-C ) :  -0.9401 B(  5-C ,  8-C ) :   0.3855
B(  5-C ,  9-C ) :  -0.1320 B(  5-C , 10-C ) :   0.3392 B(  5-C , 11-C ) :  -0.3533
B(  5-C , 13-C ) :   0.1152 B(  5-C , 14-C ) :   0.1223 B(  5-C , 16-C ) :  -0.4012
B(  5-C , 17-C ) :   0.2630 B(  5-C , 18-C ) :  -0.2142 B(  5-C , 19-C ) :   0.4542
B(  5-C , 20-C ) :  -0.1680 B(  5-C , 21-C ) :  -0.7042 B(  5-C , 22-C ) :   1.9443
B(  5-C , 23-C ) :  -0.6395 B(  6-C ,  7-C ) :   0.6901 B(  6-C ,  8-C ) :  -0.1017
B(  6-C , 11-C ) :   0.2236 B(  6-C , 13-C ) :  -0.1617 B(  6-C , 15-C ) :   0.1230
B(  6-C , 16-C ) :   0.2530 B(  6-C , 17-C ) :  -0.2170 B(  6-C , 18-C ) :   0.8622
B(  6-C , 19-C ) :  -0.4067 B(  6-C , 22-C ) :   1.7249 B(  6-C , 23-C ) :  -1.2797
B(  7-C ,  8-C ) :  -1.8826 B(  7-C ,  9-C ) :  -1.8861 B(  7-C , 10-C ) :  -0.1706
B(  7-C , 11-C ) :  -0.2851 B(  7-C , 13-C ) :   0.1064 B(  7-C , 14-C ) :  -0.3229
B(  7-C , 15-C ) :  -0.1278 B(  7-C , 16-C ) :   0.4053 B(  7-C , 17-C ) :  -0.3037
B(  7-C , 18-C ) :  -0.3256 B(  7-C , 20-C ) :   0.2348 B(  7-C , 21-C ) :   1.9717
B(  7-C , 22-C ) :  -1.1088 B(  7-C , 23-C ) :   1.2674 B(  8-C ,  9-C ) :  -0.9767
B(  8-C , 10-C ) :  -0.8965 B(  8-C , 11-C ) :   0.4513 B(  8-C , 12-C ) :   0.3137
B(  8-C , 14-C ) :   0.7993 B(  8-C , 16-C ) :  -0.6148 B(  8-C , 17-C ) :   1.4394
B(  8-C , 18-C ) :  -1.2280 B(  8-C , 19-C ) :  -0.8435 B(  8-C , 20-C ) :   0.4594
B(  8-C , 21-C ) :  -0.6585 B(  8-C , 22-C ) :  -1.5945 B(  8-C , 23-C ) :   1.2678
B(  9-C , 10-C ) :   0.9508 B(  9-C , 11-C ) :   0.5492 B(  9-C , 12-C ) :   0.5533
B(  9-C , 13-C ) :  -0.1340 B(  9-C , 14-C ) :  -0.2115 B(  9-C , 15-C ) :   0.1087
B(  9-C , 16-C ) :   0.1441 B(  9-C , 17-C ) :  -0.1823 B(  9-C , 18-C ) :  -0.1097
B(  9-C , 19-C ) :  -0.4452 B(  9-C , 20-C ) :  -0.6007 B(  9-C , 21-C ) :   1.4047
B(  9-C , 22-C ) :  -1.4183 B(  9-C , 23-C ) :   0.5966 B( 10-C , 11-C ) :  -1.5572
B( 10-C , 12-C ) :  -2.1748 B( 10-C , 13-C ) :   0.2762 B( 10-C , 14-C ) :  -0.1039
B( 10-C , 16-C ) :   0.1108 B( 10-C , 17-C ) :  -0.5222 B( 10-C , 18-C ) :   0.5093
B( 10-C , 19-C ) :   0.5214 B( 10-C , 20-C ) :   2.0961 B( 10-C , 21-C ) :   0.1469
B( 10-C , 22-C ) :   1.5866 B( 10-C , 23-C ) :  -0.5439 B( 10-C , 24-H ) :  -0.2316
B( 11-C , 12-C ) :  -0.1806 B( 11-C , 14-C ) :   0.6810 B( 11-C , 15-C ) :  -0.1214
B( 11-C , 16-C ) :  -0.2274 B( 11-C , 17-C ) :   0.4032 B( 11-C , 18-C ) :  -0.7105
B( 11-C , 19-C ) :  -0.4947 B( 11-C , 20-C ) :  -1.6954 B( 11-C , 21-C ) :  -1.0092
B( 11-C , 22-C ) :  -0.7638 B( 11-C , 23-C ) :  -0.4191 B( 11-C , 24-H ) :  -0.5456
B( 11-C , 25-H ) :  -0.1361 B( 12-C , 13-C ) :   0.3944 B( 12-C , 15-C ) :   0.2780
B( 12-C , 16-C ) :  -0.1856 B( 12-C , 19-C ) :   0.1748 B( 12-C , 20-C ) :   0.8247
B( 12-C , 24-H ) :   1.3572 B( 13-C , 15-C ) :  -1.8480 B( 13-C , 16-C ) :   0.4442
B( 13-C , 17-C ) :   0.1136 B( 13-C , 19-C ) :   0.7877 B( 13-C , 21-C ) :   0.1406
B( 13-C , 23-C ) :  -0.1055 B( 13-C , 25-H ) :   1.3048 B( 14-C , 15-C ) :  -0.2912
B( 14-C , 16-C ) :   0.2572 B( 14-C , 17-C ) :   0.3477 B( 14-C , 18-C ) :  -1.1338
B( 14-C , 19-C ) :  -0.3248 B( 14-C , 20-C ) :   1.4087 B( 14-C , 21-C ) :  -0.8327
B( 14-C , 22-C ) :  -0.5826 B( 14-C , 23-C ) :   1.4550 B( 14-C , 24-H ) :  -0.1265
B( 14-C , 25-H ) :  -0.4848 B( 15-C , 16-C ) :   0.5433 B( 15-C , 17-C ) :  -0.3331
B( 15-C , 19-C ) :   2.0006 B( 15-C , 20-C ) :  -0.6544 B( 15-C , 21-C ) :   0.4990
B( 15-C , 22-C ) :  -0.4675 B( 15-C , 23-C ) :   0.7239 B( 15-C , 25-H ) :  -0.2079
B( 16-C , 17-C ) :  -1.6695 B( 16-C , 18-C ) :   2.3565 B( 16-C , 19-C ) :  -0.5940
B( 16-C , 20-C ) :   0.1675 B( 16-C , 22-C ) :   0.8227 B( 16-C , 23-C ) :  -1.5580
B( 17-C , 18-C ) :  -0.1021 B( 17-C , 19-C ) :  -0.8220 B( 17-C , 20-C ) :   0.2739
B( 17-C , 21-C ) :  -0.5727 B( 17-C , 22-C ) :  -0.5736 B( 18-C , 19-C ) :   3.8005
B( 18-C , 20-C ) :   0.3471 B( 18-C , 21-C ) :   0.1882 B( 18-C , 22-C ) :  -0.2775
B( 18-C , 23-C ) :   4.1023 B( 19-C , 20-C ) :   2.7857 B( 19-C , 21-C ) :   0.4923
B( 19-C , 22-C ) :   1.9427 B( 19-C , 23-C ) :  -0.4419 B( 19-C , 25-H ) :   0.4013
B( 20-C , 21-C ) :   3.9311 B( 20-C , 22-C ) :  -0.5061 B( 20-C , 23-C ) :  -1.0155
B( 20-C , 24-H ) :   0.4606 B( 21-C , 22-C ) :   4.1525 B( 21-C , 23-C ) :  -0.3004
B( 22-C , 23-C ) :   3.3410

-----------------------------------------------------------------------------
         ABSORPTION SPECTRUM VIA TRANSITION ELECTRIC DIPOLE MOMENTS
-----------------------------------------------------------------------------
State   Energy    Wavelength  fosc         T2        TX        TY        TZ
        (cm-1)      (nm)                 (au**2)    (au)      (au)      (au)
-----------------------------------------------------------------------------
   1   21172.5    472.3   0.000000007   0.00000  -0.00000   0.00000   0.00032
   2   21448.3    466.2   0.000003772   0.00006   0.00000   0.00000  -0.00761
   3   21656.5    461.8   0.000000007   0.00000   0.00000  -0.00000   0.00032
   4   21688.4    461.1   0.000001603   0.00002  -0.00000   0.00000   0.00493
   5   23942.9    417.7   0.000000176   0.00000   0.00000   0.00000  -0.00156
   6   23988.5    416.9   0.000183227   0.00251   0.00000  -0.00000  -0.05015
   7   25561.1    391.2   0.000000000   0.00000  -0.00000   0.00000  -0.00004
   8   26227.7    381.3   0.000058701   0.00074  -0.00000  -0.00000  -0.02714
   9   26394.0    378.9   0.000000122   0.00000   0.00000  -0.00000  -0.00123
  10   26551.1    376.6   0.001995148   0.02474   0.00001  -0.00001  -0.15728
  11   27079.8    369.3   0.002622917   0.03189   0.08743   0.15570  -0.00000
  12   28541.3    350.4   0.011093042   0.12795   0.31219  -0.17462   0.00001
  13   31382.3    318.7   0.000000014   0.00000  -0.00001  -0.00000   0.00038
  14   31490.2    317.6   0.000014640   0.00015   0.00000   0.00000   0.01237
  15   31843.7    314.0   0.000000026   0.00000   0.00000   0.00000   0.00052
  16   32186.4    310.7   0.000213948   0.00219  -0.00000   0.00001   0.04678
  17   33109.9    302.0   0.139639085   1.38843   0.57664   1.02758  -0.00001
  18   33806.5    295.8   0.164564454   1.60255  -1.10397   0.61951  -0.00007
  19   33913.0    294.9   0.000155633   0.00151  -0.00000   0.00000  -0.03887
  20   34569.8    289.3   0.000000002   0.00000   0.00001  -0.00000   0.00013
  21   34886.9    286.6   0.006060967   0.05719  -0.21180   0.11107  -0.00001
  22   35401.3    282.5   0.057194904   0.53188   0.34981   0.63993  -0.00000
  23   35758.5    279.7   0.038672223   0.35604  -0.52287   0.28748  -0.00003
  24   35797.6    279.3   0.000001957   0.00002  -0.00013   0.00006  -0.00424
  25   35810.3    279.2   0.000000097   0.00000   0.00002   0.00002  -0.00094
  26   35856.0    278.9   0.001577236   0.01448   0.06108   0.10369   0.00000
  27   36087.7    277.1   0.000000000   0.00000  -0.00001  -0.00000   0.00006
  28   36116.3    276.9   0.000001740   0.00002  -0.00002   0.00002  -0.00398
  29   36172.4    276.5   0.000100279   0.00091  -0.02504   0.01691  -0.00000
  30   36219.7    276.1   0.007315184   0.06649   0.12524   0.22540  -0.00000
  31   36501.2    274.0   0.000641206   0.00578   0.06685  -0.03625   0.00001
  32   36520.9    273.8   0.000000000   0.00000  -0.00003   0.00001   0.00003
  33   36662.6    272.8   0.005497998   0.04937   0.19096  -0.11360   0.00001
  34   36823.4    271.6   0.001378701   0.01233  -0.05388  -0.09707   0.00000
  35   36873.4    271.2   0.053883393   0.48108  -0.34202  -0.60341  -0.00000
  36   37071.8    269.7   0.001603030   0.01424  -0.05740  -0.10460  -0.00000
  37   37284.4    268.2   0.001389964   0.01227   0.00001   0.00002  -0.11078
  38   37346.9    267.8   0.000596039   0.00525  -0.00003   0.00001   0.07248
  39   37353.7    267.7   0.000885300   0.00780  -0.07664   0.04392  -0.00005
  40   37670.0    265.5   0.019013729   0.16617   0.35574  -0.19904   0.00002
  41   37685.4    265.4   0.007233572   0.06319  -0.12834  -0.21615   0.00000
  42   37733.1    265.0   0.021276184   0.18563  -0.37070   0.21956  -0.00002
  43   37820.5    264.4   0.000000010   0.00000   0.00002  -0.00002  -0.00030
  44   38345.7    260.8   0.267322511   2.29506  -1.32182   0.74017  -0.00009
  45   38455.1    260.0   0.000825578   0.00707   0.00011  -0.00009  -0.08407
  46   38643.7    258.8   0.000001356   0.00001   0.00001  -0.00002  -0.00340
  47   38712.3    258.3   0.111179006   0.94547   0.47860   0.84641  -0.00002
  48   38745.9    258.1   0.000950717   0.00808   0.00007   0.00015   0.08988
  49   38937.5    256.8   0.000000021   0.00000  -0.00003   0.00002   0.00042
  50   39227.9    254.9   0.053697327   0.45064   0.31648   0.59201  -0.00000
  51   39252.6    254.8   0.000000471   0.00000   0.00001   0.00006  -0.00199
  52   39287.5    254.5   0.017091855   0.14322   0.33936  -0.16750   0.00001
  53   39328.6    254.3   0.000858846   0.00719  -0.00002  -0.00000  -0.08479
  54   39631.4    252.3   0.000000015   0.00000   0.00000  -0.00000  -0.00035
  55   39778.0    251.4   0.000496302   0.00411  -0.00001   0.00000  -0.06409
  56   40062.2    249.6   0.000048403   0.00040  -0.00697   0.01869   0.00000
  57   40067.4    249.6   0.003968261   0.03261  -0.16001   0.08368   0.00009
  58   40071.3    249.6   0.000477753   0.00393   0.00025  -0.00013   0.06265
  59   40449.6    247.2   0.005698469   0.04638   0.19476  -0.09191   0.00008
  60   40482.7    247.0   0.004932621   0.04011   0.00007  -0.00002  -0.20028
  61   40531.0    246.7   0.028739993   0.23344   0.23136   0.42416   0.00000
  62   40827.5    244.9   0.000000053   0.00000   0.00000   0.00000  -0.00065
  63   40970.6    244.1   0.000105524   0.00085   0.00001  -0.00000  -0.02912
  64   41059.4    243.5   0.000432719   0.00347  -0.05678   0.01566  -0.00001
  65   41064.6    243.5   0.000000013   0.00000   0.00004   0.00031  -0.00011
  66   41074.6    243.5   0.012023608   0.09637   0.14851   0.27261  -0.00000
  67   41250.8    242.4   0.000000006   0.00000   0.00000   0.00001  -0.00021
  68   41417.3    241.4   0.002508980   0.01994  -0.12403   0.06752  -0.00000
  69   41633.3    240.2   0.001146478   0.00907   0.04319   0.08486   0.00000
  70   42015.1    238.0   0.002435843   0.01909   0.08928  -0.10543   0.00001
  71   42019.0    238.0   0.008940530   0.07005   0.24213  -0.10687   0.00001
  72   42810.3    233.6   0.238454286   1.83372   0.65962   1.18263  -0.00001
  73   42922.2    233.0   0.076743742   0.58862  -0.66953   0.37463  -0.00004
  74   42930.8    232.9   0.000000007   0.00000  -0.00010   0.00007  -0.00019
  75   43328.3    230.8   0.018086187   0.13742   0.18101   0.32351  -0.00000
  76   43420.2    230.3   0.000007272   0.00006  -0.00012   0.00006  -0.00742
  77   43437.2    230.2   0.053443095   0.40505   0.55692  -0.30803   0.00003
  78   43771.5    228.5   0.001105888   0.00832   0.04074   0.08159  -0.00000
  79   44064.5    226.9   0.018939411   0.14150  -0.32871   0.18289  -0.00002
  80   45666.9    219.0   0.006005477   0.04329   0.10046   0.18221  -0.00000
  81   45797.4    218.4   0.000578342   0.00416  -0.05741   0.02935  -0.00000
  82   45936.1    217.7   0.003391406   0.02431  -0.07617  -0.13603   0.00000
  83   47067.8    212.5   0.000000000   0.00000  -0.00000  -0.00000   0.00004
  84   47202.2    211.9   0.000000241   0.00000   0.00000   0.00000   0.00130
  85   48063.4    208.1   0.000616007   0.00422   0.00002   0.00001  -0.06496
  86   48367.8    206.7   0.000000009   0.00000   0.00009  -0.00003   0.00023
  87   48428.8    206.5   0.040599207   0.27599  -0.45947   0.25470  -0.00005
  88   48465.3    206.3   0.001482975   0.01007  -0.00010   0.00005   0.10037
  89   48767.2    205.1   0.073077460   0.49332   0.34948   0.60925  -0.00000
  90   48809.0    204.9   0.027991764   0.18880   0.37319  -0.22256   0.00002
  91   48999.1    204.1   0.000000578   0.00000  -0.00002  -0.00003   0.00197
  92   49163.5    203.4   0.000000033   0.00000  -0.00000  -0.00002  -0.00047
  93   49294.5    202.9   0.004290831   0.02866  -0.08283  -0.14763   0.00000
  94   49335.6    202.7   0.000000012   0.00000   0.00001  -0.00002  -0.00028
  95   49459.7    202.2   0.000000000   0.00000   0.00001  -0.00001   0.00001
  96   49706.4    201.2   0.000024911   0.00016   0.00000  -0.00001  -0.01284
  97   50282.7    198.9   0.000000010   0.00000  -0.00000   0.00001  -0.00025
  98   50336.0    198.7   0.000000002   0.00000  -0.00001   0.00002   0.00012
  99   50526.8    197.9   0.037339888   0.24329   0.42995  -0.24174   0.00002
 100   50598.3    197.6   0.000149626   0.00097  -0.00003   0.00003  -0.03120
 101   50676.2    197.3   0.000000292   0.00000  -0.00008   0.00002   0.00137
 102   50829.0    196.7   0.001157392   0.00750  -0.00000  -0.00000   0.08658
 103   50940.6    196.3   0.000027958   0.00018   0.00002   0.00000  -0.01344
 104   50979.0    196.2   0.000118334   0.00076   0.00002  -0.00000  -0.02764
 105   51106.8    195.7   0.000297036   0.00191  -0.00000   0.00001   0.04374
 106   51356.6    194.7   0.000000086   0.00000   0.00017  -0.00011   0.00071
 107   51394.8    194.6   0.038830355   0.24873  -0.43472   0.24444  -0.00002
 108   51451.9    194.4   0.000023140   0.00015  -0.00002  -0.00001  -0.01217
 109   51452.9    194.4   0.000091689   0.00059  -0.00001   0.00002  -0.02422
 110   51538.4    194.0   0.000807786   0.00516   0.00003  -0.00003   0.07183
 111   51737.7    193.3   0.000000008   0.00000  -0.00000  -0.00001  -0.00023
 112   52084.4    192.0   0.000000026   0.00000   0.00000   0.00001  -0.00041
 113   52150.4    191.8   0.059996083   0.37874   0.30167   0.53641   0.00000
 114   52356.0    191.0   0.000070710   0.00044   0.00001   0.00002  -0.02109
 115   52610.3    190.1   0.002865235   0.01793   0.00002   0.00003  -0.13390
 116   52740.4    189.6   0.000000620   0.00000   0.00003   0.00001  -0.00197
 117   52841.0    189.2   0.000253948   0.00158   0.00002   0.00003  -0.03978
 118   53293.5    187.6   0.114407306   0.70673   0.73122  -0.41479   0.00004
 119   53331.9    187.5   0.000000000   0.00000  -0.00000  -0.00000   0.00000
 120   53331.9    187.5   0.000000000   0.00000   0.00000  -0.00000  -0.00000
 121   53331.9    187.5   0.000000000   0.00000  -0.00000   0.00000   0.00000
 122   53331.9    187.5   0.000000000   0.00000  -0.00000  -0.00000  -0.00000
 123   53491.7    186.9   0.256163801   1.57655  -1.11197   0.58316  -0.00007
 124   53601.7    186.6   1.017105452   6.24688   1.20658   2.18885  -0.00001
 125   53756.4    186.0   0.000000000   0.00000   0.00000   0.00000   0.00000
 126   53756.4    186.0   0.000000000   0.00000   0.00000   0.00000   0.00000
 127   53756.4    186.0   0.000000000   0.00000   0.00000   0.00000  -0.00000
 128   53756.4    186.0   0.000000000   0.00000  -0.00000  -0.00000  -0.00000
 129   53790.5    185.9   0.000000004   0.00000   0.00001   0.00003  -0.00015
 130   53998.7    185.2   0.000000028   0.00000   0.00000   0.00000  -0.00041
 131   54054.3    185.0   0.065607426   0.39958  -0.30758  -0.55224   0.00001
 132   54097.2    184.9   0.000290784   0.00177   0.00001   0.00005   0.04207
 133   54342.5    184.0   0.000094323   0.00057  -0.00000   0.00000   0.02390
 134   55247.6    181.0   0.000000016   0.00000  -0.00001   0.00002   0.00031
 135   55344.9    180.7   0.030636572   0.18224   0.37232  -0.20884   0.00002
 136   55377.6    180.6   0.000116028   0.00069   0.00006  -0.00004   0.02626
 137   55550.1    180.0   0.132707354   0.78648  -0.77325   0.43423  -0.00004
 138   55882.9    178.9   0.000002117   0.00001   0.00000   0.00001  -0.00353
 139   55927.0    178.8   0.000064635   0.00038  -0.00001   0.00001  -0.01951
 140   55973.0    178.7   0.112714477   0.66294   0.39818   0.71021  -0.00000
 141   56287.8    177.7   0.003849778   0.02252  -0.00005   0.00004   0.15005
 142   56359.5    177.4   0.035628599   0.20812  -0.39781   0.22330  -0.00003
 143   56368.0    177.4   0.000005422   0.00003  -0.00013   0.00009  -0.00563
 144   56522.6    176.9   0.015607927   0.09091   0.15247   0.26011  -0.00000
 145   56753.0    176.2   0.017690498   0.10262   0.17207   0.27021  -0.00000
 146   56855.9    175.9   0.000000534   0.00000   0.00080  -0.00040   0.00152
 147   56866.1    175.9   0.319482422   1.84956  -1.18751   0.66286  -0.00007
 148   57135.3    175.0   0.045319402   0.26113  -0.22481  -0.45890  -0.00001
 149   57162.4    174.9   0.005252259   0.03025  -0.00005  -0.00001   0.17392
 150   57387.2    174.3   0.109863368   0.63025   0.69108  -0.39071   0.00005
 151   57486.0    174.0   0.002715501   0.01555   0.00004  -0.00002   0.12470
 152   57620.1    173.6   0.102148402   0.58362  -0.38095  -0.66220   0.00000
 153   57648.3    173.5   0.067209507   0.38381   0.53935  -0.30482   0.00004
 154   57753.0    173.2   0.000020719   0.00012   0.00004   0.00007   0.01087
 155   57880.9    172.8   0.000019822   0.00011   0.00675   0.00819   0.00000
 156   58155.2    172.0   0.000002371   0.00001  -0.00007  -0.00014   0.00366
 157   58289.3    171.6   0.004560795   0.02576   0.00021   0.00036  -0.16050
 158   58293.6    171.5   0.002184669   0.01234  -0.05714  -0.09525  -0.00043
 159   58319.7    171.5   0.000382194   0.00216   0.00012   0.00024   0.04645
 160   58384.8    171.3   0.529023697   2.98299  -0.84357  -1.50711   0.00001
 161   58736.6    170.3   0.001143654   0.00641  -0.00003   0.00001  -0.08006
 162   58773.8    170.1   0.000063008   0.00035  -0.00000  -0.00000   0.01879
 163   59162.7    169.0   0.004944158   0.02751  -0.12906   0.10419  -0.00000
 164   59241.6    168.8   0.131172004   0.72894  -0.43378  -0.73537   0.00001
 165   59288.7    168.7   0.010617707   0.05896  -0.18846   0.15310  -0.00001
 166   59466.5    168.2   0.000261667   0.00145   0.03431  -0.01647  -0.00001
 167   59715.6    167.5   0.028910136   0.15938  -0.19819  -0.34656   0.00000
 168   59772.4    167.3   0.042636693   0.23483  -0.23205  -0.42542  -0.00000
 169   60167.8    166.2   0.000754966   0.00413  -0.00003   0.00002   0.06427
 170   60246.9    166.0   0.000000625   0.00000   0.00002  -0.00001   0.00185
 171   60267.9    165.9   0.216333691   1.18172  -0.94874   0.53067  -0.00006
 172   60571.0    165.1   0.005007574   0.02722  -0.07763  -0.14557   0.00000
 173   60615.2    165.0   0.000029834   0.00016  -0.00001   0.00000   0.01273
 174   60811.0    164.4   0.002044127   0.01107  -0.00003   0.00002  -0.10520
 175   60833.7    164.4   0.003368141   0.01823  -0.00002   0.00002  -0.13501
 176   60843.4    164.4   0.028795513   0.15581   0.34211  -0.19690  -0.00000
 177   61048.0    163.8   0.000006603   0.00004   0.00016  -0.00018   0.00596
 178   61050.6    163.8   0.000981492   0.00529  -0.06391   0.03476   0.00002
 179   61080.7    163.7   0.015289314   0.08241  -0.14377  -0.24847  -0.00001
 180   61119.1    163.6   0.000251647   0.00136  -0.00001  -0.00004   0.03682
 181   61449.8    162.7   0.000202268   0.00108  -0.00006   0.00003  -0.03292
 182   61523.9    162.5   0.475696317   2.54543  -1.39125   0.78093  -0.00008
 183   61659.4    162.2   0.186300670   0.99470  -0.49150  -0.86783   0.00001
 184   61704.1    162.1   0.000067828   0.00036   0.00003  -0.00003  -0.01902
 185   61991.1    161.3   0.047996067   0.25489  -0.44085   0.24604  -0.00002
 186   62071.2    161.1   0.000000734   0.00000  -0.00001   0.00001  -0.00197
 187   62145.7    160.9   0.000071340   0.00038  -0.00001  -0.00002  -0.01944
 188   62205.4    160.8   0.002517380   0.01332   0.00001   0.00002   0.11542
 189   62473.3    160.1   0.119540818   0.62994  -0.69694   0.37976  -0.00003
 190   62507.0    160.0   0.026231687   0.13816  -0.16359  -0.33376  -0.00000
 191   62619.9    159.7   0.000001597   0.00001  -0.00017   0.00012  -0.00289
 192   62639.9    159.6   0.000006873   0.00004   0.00030  -0.00010   0.00600
 193   62685.8    159.5   0.000268273   0.00141  -0.00008   0.00003  -0.03754
 194   62860.1    159.1   0.305129998   1.59803   1.10332  -0.61702   0.00006
 195   62879.9    159.0   0.004210495   0.02204   0.00024  -0.14847  -0.00000
 196   62910.6    159.0   0.000001525   0.00001  -0.00059   0.00037  -0.00274

Dispersion correction           -0.091105918
FINAL SINGLE POINT ENERGY      -914.872081129912

DIPOLE MOMENT
-------------
                                X             Y             Z
Electronic contribution:     -3.75352      -6.69581       0.00004
Nuclear contribution   :      4.24400       7.56837      -0.00004
                        -----------------------------------------
Total Dipole Moment    :      0.49048       0.87256      -0.00000
                        -----------------------------------------
Magnitude (a.u.)       :      1.00097
Magnitude (Debye)      :      2.54426

Rotational constants in cm-1:     0.012496     0.011858     0.006084
Rotational constants in MHz :   374.610686   355.500967   182.402870

                             ****ORCA TERMINATED NORMALLY****
TOTAL RUN TIME: 0 days 3 hours 49 minutes 56 seconds 325 msec
