                         Program Version 5.0.4 -  RELEASE  -
|  1> !B3LYP 6-311+G**  D4
|  2>
|  3> %maxcore 5000
|  4> %pal
|  5> nprocs 7
|  6> end
|  7>
|  8> %TDDFT
|  9>   NROOTS 1000
| 10>   END
| 11>
| 12> %scf
| 13> stabperform true
| 14> STABDTol 1e-5
| 15> STABRTol 1e-5
| 16> end
| 17>
| 18> * XYZ 0 1
| 19>   C   -2.84649481311413      1.32853934278519      0.04082544356362
| 20>   C   -3.54252477281126      0.01994727577677     -0.33605495274669
| 21>   C   -2.83457073606975     -1.16459111854875      0.31871888226741
| 22>   C   -1.39701413503665     -1.27284678953460     -0.19192955803844
| 23>   C   -0.60778189749083     -2.39462513401217      0.48685667106428
| 24>   C   0.78280703912992     -2.50538872088470     -0.13496808632783
| 25>   C   1.51814970578825     -1.18574242893202     -0.09377498747591
| 26>   C   2.89606793121302     -1.14864983454714     -0.07156557965300
| 27>   C   3.60029305628665      0.07194215298803     -0.03113207606206
| 28>   C   2.91272323180302      1.25973092723284      0.00497211713763
| 29>   C   1.49679423859972      1.27172733578483     -0.00399200134586
| 30>   C   0.76345538252798      2.48378034803392      0.05160731595718
| 31>   C   -0.60425071907424      2.46793065706477      0.05576720469919
| 32>   C   -1.33356075610284      1.25237015608953     -0.00996113147980
| 33>   C   -0.65359902462919      0.04989388477955     -0.08256147958178
| 34>   C   0.77930999944335      0.03590504658895     -0.06614838926150
| 35>   H   -3.19207700044805      2.14305246952036     -0.60527737099407
| 36>   H   -3.14145377005098      1.61544427458061      1.05964867159191
| 37>   H   -4.59662501394741      0.05893629674610     -0.04457185891001
| 38>   H   -3.52265195310175     -0.10939518668025     -1.42500050923922
| 39>   H   -2.82767810590250     -1.03737931324478      1.40910785138869
| 40>   H   -3.36700692838662     -2.09932745923735      0.11344666923069
| 41>   H   -1.45240989786308     -1.52640514968263     -1.26308063325247
| 42>   H   -0.52098884418308     -2.18224796473432      1.55905583992564
| 43>   H   -1.14712231372923     -3.34248653150317      0.38830475934375
| 44>   H   1.37696615538652     -3.27484455038569      0.36726258084472
| 45>   H   0.67865465379689     -2.83227840543068     -1.17888914336500
| 46>   H   3.45098861232817     -2.08288638823669     -0.08041532119640
| 47>   H   4.68556022408452      0.06576823348553     -0.01754280207247
| 48>   H   3.44420915128685      2.20590793785539      0.04760152993843
| 49>   H   1.30478610566844      3.42439785857417      0.09426977468638
| 50>   H   -1.15605480540169      3.40282077770839      0.10822056936297
| 51> **                         ****END OF INPUT****

CARTESIAN COORDINATES (ANGSTROEM)
---------------------------------
  C     -2.846495    1.328539    0.040825
  C     -3.542525    0.019947   -0.336055
  C     -2.834571   -1.164591    0.318719
  C     -1.397014   -1.272847   -0.191930
  C     -0.607782   -2.394625    0.486857
  C      0.782807   -2.505389   -0.134968
  C      1.518150   -1.185742   -0.093775
  C      2.896068   -1.148650   -0.071566
  C      3.600293    0.071942   -0.031132
  C      2.912723    1.259731    0.004972
  C      1.496794    1.271727   -0.003992
  C      0.763455    2.483780    0.051607
  C     -0.604251    2.467931    0.055767
  C     -1.333561    1.252370   -0.009961
  C     -0.653599    0.049894   -0.082561
  C      0.779310    0.035905   -0.066148
  H     -3.192077    2.143052   -0.605277
  H     -3.141454    1.615444    1.059649
  H     -4.596625    0.058936   -0.044572
  H     -3.522652   -0.109395   -1.425001
  H     -2.827678   -1.037379    1.409108
  H     -3.367007   -2.099327    0.113447
  H     -1.452410   -1.526405   -1.263081
  H     -0.520989   -2.182248    1.559056
  H     -1.147122   -3.342487    0.388305
  H      1.376966   -3.274845    0.367263
  H      0.678655   -2.832278   -1.178889
  H      3.450989   -2.082886   -0.080415
  H      4.685560    0.065768   -0.017543
  H      3.444209    2.205908    0.047602
  H      1.304786    3.424398    0.094270
  H     -1.156055    3.402821    0.108221

 Total Charge           Charge          ....    0
 Multiplicity           Mult            ....    1
 Number of Electrons    NEL             ....  112
 Basis Dimension        Dim             ....  448

ORBITAL ENERGIES
----------------

  NO   OCC          E(Eh)            E(eV)
   0   2.0000     -10.176472      -276.9159
   1   2.0000     -10.176073      -276.9050
   2   2.0000     -10.175624      -276.8928
   3   2.0000     -10.174207      -276.8543
   4   2.0000     -10.174029      -276.8494
   5   2.0000     -10.173544      -276.8362
   6   2.0000     -10.168973      -276.7118
   7   2.0000     -10.168586      -276.7013
   8   2.0000     -10.167802      -276.6800
   9   2.0000     -10.167289      -276.6660
  10   2.0000     -10.166380      -276.6413
  11   2.0000     -10.166363      -276.6408
  12   2.0000     -10.164939      -276.6021
  13   2.0000     -10.164675      -276.5949
  14   2.0000     -10.164653      -276.5943
  15   2.0000     -10.163369      -276.5593
  16   2.0000      -0.881378       -23.9835
  17   2.0000      -0.838824       -22.8256
  18   2.0000      -0.822329       -22.3767
  19   2.0000      -0.787631       -21.4325
  20   2.0000      -0.760175       -20.6854
  21   2.0000      -0.740800       -20.1582
  22   2.0000      -0.725518       -19.7423
  23   2.0000      -0.703505       -19.1434
  24   2.0000      -0.634414       -17.2633
  25   2.0000      -0.620481       -16.8841
  26   2.0000      -0.618881       -16.8406
  27   2.0000      -0.603389       -16.4191
  28   2.0000      -0.563547       -15.3349
  29   2.0000      -0.545741       -14.8504
  30   2.0000      -0.509288       -13.8584
  31   2.0000      -0.494572       -13.4580
  32   2.0000      -0.484482       -13.1834
  33   2.0000      -0.470740       -12.8095
  34   2.0000      -0.463356       -12.6086
  35   2.0000      -0.446682       -12.1548
  36   2.0000      -0.426405       -11.6031
  37   2.0000      -0.421519       -11.4701
  38   2.0000      -0.412170       -11.2157
  39   2.0000      -0.407278       -11.0826
  40   2.0000      -0.399921       -10.8824
  41   2.0000      -0.391445       -10.6518
  42   2.0000      -0.386499       -10.5172
  43   2.0000      -0.381209       -10.3732
  44   2.0000      -0.371198       -10.1008
  45   2.0000      -0.360653        -9.8139
  46   2.0000      -0.348961        -9.4957
  47   2.0000      -0.344339        -9.3699
  48   2.0000      -0.332626        -9.0512
  49   2.0000      -0.331259        -9.0140
  50   2.0000      -0.311742        -8.4829
  51   2.0000      -0.302696        -8.2368
  52   2.0000      -0.298648        -8.1266
  53   2.0000      -0.268548        -7.3076
  54   2.0000      -0.237138        -6.4528
  55   2.0000      -0.206851        -5.6287
  56   0.0000      -0.037755        -1.0274
  57   0.0000      -0.015607        -0.4247
  58   0.0000      -0.001088        -0.0296
  59   0.0000       0.010830         0.2947
  60   0.0000       0.010960         0.2982

MULLIKEN ATOMIC CHARGES
-----------------------
   0 C :   -0.221864
   1 C :   -0.348174
   2 C :   -0.558802
   3 C :    0.019578
   4 C :   -0.715963
   5 C :    0.310005
   6 C :    1.336767
   7 C :   -0.599865
   8 C :    0.158945
   9 C :   -0.554519
  10 C :    0.668981
  11 C :    0.121630
  12 C :   -0.693814
  13 C :    1.069564
  14 C :   -1.542036
  15 C :   -0.725705
  16 H :    0.161191
  17 H :    0.174305
  18 H :    0.148375
  19 H :    0.147771
  20 H :    0.139624
  21 H :    0.137148
  22 H :    0.168696
  23 H :    0.146935
  24 H :    0.133834
  25 H :    0.148426
  26 H :    0.173249
  27 H :    0.117282
  28 H :    0.121367
  29 H :    0.118866
  30 H :    0.118512
  31 H :    0.119693
Sum of atomic charges:   -0.0000000

LOEWDIN ATOMIC CHARGES
----------------------
   0 C :   -0.089625
   1 C :   -0.102529
   2 C :   -0.100940
   3 C :   -0.123180
   4 C :   -0.088721
   5 C :   -0.081168
   6 C :   -0.080080
   7 C :   -0.066870
   8 C :   -0.059856
   9 C :   -0.052144
  10 C :   -0.069754
  11 C :   -0.042649
  12 C :   -0.053076
  13 C :   -0.097229
  14 C :   -0.075971
  15 C :   -0.057034
  16 H :    0.073891
  17 H :    0.083290
  18 H :    0.061485
  19 H :    0.075247
  20 H :    0.083886
  21 H :    0.067024
  22 H :    0.098542
  23 H :    0.085940
  24 H :    0.067637
  25 H :    0.073001
  26 H :    0.085570
  27 H :    0.077475
  28 H :    0.072174
  29 H :    0.078021
  30 H :    0.078742
  31 H :    0.078899

  Mayer bond orders larger than 0.100000
B(  0-C ,  1-C ) :   0.8638 B(  0-C ,  3-C ) :  -0.1075 B(  0-C ,  4-C ) :   0.1065
B(  0-C , 12-C ) :  -0.5622 B(  0-C , 13-C ) :   0.1995 B(  0-C , 14-C ) :   1.4270
B(  0-C , 15-C ) :  -0.2963 B(  0-C , 16-H ) :   0.9711 B(  0-C , 17-H ) :   0.8939
B(  1-C ,  2-C ) :   0.7775 B(  1-C , 13-C ) :  -0.1376 B(  1-C , 18-H ) :   0.9900
B(  1-C , 19-H ) :   1.0928 B(  2-C ,  3-C ) :   0.9999 B(  2-C ,  4-C ) :   0.3477
B(  2-C ,  5-C ) :  -0.1987 B(  2-C ,  6-C ) :  -0.2449 B(  2-C ,  9-C ) :   0.1059
B(  2-C , 11-C ) :  -0.2224 B(  2-C , 12-C ) :   0.2260 B(  2-C , 13-C ) :   0.4021
B(  2-C , 14-C ) :   1.1026 B(  2-C , 15-C ) :  -1.1631 B(  2-C , 20-H ) :   1.0389
B(  2-C , 21-H ) :   0.9814 B(  3-C ,  4-C ) :   0.7674 B(  3-C ,  5-C ) :   0.1646
B(  3-C ,  6-C ) :   0.2539 B(  3-C ,  9-C ) :  -0.1750 B(  3-C , 11-C ) :   0.1687
B(  3-C , 14-C ) :  -0.6716 B(  3-C , 15-C ) :   0.4083 B(  3-C , 22-H ) :   0.8154
B(  4-C ,  5-C ) :   0.6380 B(  4-C ,  6-C ) :  -1.2189 B(  4-C ,  7-C ) :  -0.1590
B(  4-C ,  9-C ) :   0.1455 B(  4-C , 10-C ) :   0.3315 B(  4-C , 12-C ) :  -0.1209
B(  4-C , 13-C ) :  -0.6427 B(  4-C , 15-C ) :   2.0369 B(  4-C , 23-H ) :   1.0849
B(  4-C , 24-H ) :   0.9838 B(  5-C ,  6-C ) :   1.6670 B(  5-C ,  7-C ) :  -0.6043
B(  5-C ,  8-C ) :   0.2540 B(  5-C ,  9-C ) :  -0.3483 B(  5-C , 12-C ) :   0.2217
B(  5-C , 13-C ) :   0.7617 B(  5-C , 14-C ) :  -0.6516 B(  5-C , 15-C ) :  -1.5639
B(  5-C , 23-H ) :  -0.1171 B(  5-C , 25-H ) :   1.0524 B(  5-C , 26-H ) :   0.9847
B(  5-C , 27-H ) :  -0.1827 B(  6-C ,  7-C ) :   0.4932 B(  6-C ,  8-C ) :   0.4948
B(  6-C , 10-C ) :  -0.4370 B(  6-C , 11-C ) :   0.1432 B(  6-C , 13-C ) :   0.7607
B(  6-C , 14-C ) :  -0.8594 B(  6-C , 15-C ) :   0.7324 B(  6-C , 22-H ) :   0.1492
B(  6-C , 25-H ) :  -0.2296 B(  6-C , 26-H ) :   0.1648 B(  6-C , 27-H ) :  -0.6527
B(  6-C , 28-H ) :  -0.2166 B(  6-C , 29-H ) :  -0.1583 B(  7-C ,  8-C ) :   0.9224
B(  7-C ,  9-C ) :   0.4312 B(  7-C , 11-C ) :  -0.1507 B(  7-C , 14-C ) :   0.4322
B(  7-C , 15-C ) :   0.3716 B(  7-C , 26-H ) :   0.1405 B(  7-C , 27-H ) :   1.2719
B(  7-C , 28-H ) :   0.1473 B(  8-C ,  9-C ) :   1.1502 B(  8-C , 10-C ) :  -0.1679
B(  8-C , 11-C ) :   0.1181 B(  8-C , 13-C ) :   0.3020 B(  8-C , 14-C ) :  -0.8893
B(  8-C , 15-C ) :   0.3179 B(  8-C , 28-H ) :   0.8611 B(  9-C , 10-C ) :  -0.3225
B(  9-C , 11-C ) :  -0.9442 B(  9-C , 14-C ) :   0.2768 B(  9-C , 15-C ) :   1.5298
B(  9-C , 28-H ) :   0.1492 B(  9-C , 29-H ) :   1.2522 B(  9-C , 30-H ) :  -0.1887
B( 10-C , 11-C ) :   0.3668 B( 10-C , 13-C ) :   0.1494 B( 10-C , 14-C ) :  -0.4702
B( 10-C , 15-C ) :   3.0007 B( 10-C , 22-H ) :  -0.1106 B( 10-C , 26-H ) :  -0.1122
B( 10-C , 27-H ) :  -0.1881 B( 10-C , 28-H ) :  -0.2334 B( 10-C , 29-H ) :  -0.5653
B( 10-C , 30-H ) :  -0.4541 B( 11-C , 12-C ) :   0.3265 B( 11-C , 13-C ) :   0.3401
B( 11-C , 14-C ) :  -1.1808 B( 11-C , 15-C ) :   1.6831 B( 11-C , 29-H ) :  -0.2796
B( 11-C , 30-H ) :   1.2859 B( 12-C , 13-C ) :  -0.3562 B( 12-C , 14-C ) :   2.6232
B( 12-C , 15-C ) :  -0.9978 B( 12-C , 30-H ) :  -0.1204 B( 12-C , 31-H ) :   1.0854
B( 13-C , 14-C ) :  -0.6342 B( 13-C , 15-C ) :  -0.2077 B( 13-C , 16-H ) :  -0.1835
B( 13-C , 22-H ) :   0.1720 B( 13-C , 30-H ) :   0.1104 B( 13-C , 31-H ) :  -0.1956
B( 14-C , 15-C ) :  -0.7603 B( 14-C , 16-H ) :   0.2088 B( 14-C , 19-H ) :  -0.1617
B( 14-C , 20-H ) :  -0.2597 B( 14-C , 22-H ) :  -0.1810 B( 14-C , 26-H ) :   0.1999
B( 14-C , 27-H ) :   0.1204 B( 14-C , 29-H ) :   0.1180 B( 14-C , 30-H ) :  -0.2001
B( 14-C , 31-H ) :   0.2320 B( 15-C , 19-H ) :   0.1152 B( 15-C , 20-H ) :   0.2980
B( 15-C , 25-H ) :   0.2122 B( 15-C , 26-H ) :  -0.3376 B( 15-C , 27-H ) :   0.5931
B( 15-C , 28-H ) :   0.2708 B( 15-C , 29-H ) :   0.6224 B( 15-C , 30-H ) :   0.4609

-----------------------------------------------------------------------------
         ABSORPTION SPECTRUM VIA TRANSITION ELECTRIC DIPOLE MOMENTS
-----------------------------------------------------------------------------
State   Energy    Wavelength  fosc         T2        TX        TY        TZ
        (cm-1)      (nm)                 (au**2)    (au)      (au)      (au)
-----------------------------------------------------------------------------
   1   34446.9    290.3   0.033457229   0.31975   0.44207   0.35213   0.01839
   2   35540.8    281.4   0.069448220   0.64329  -0.26564  -0.75522  -0.04866
   3   40098.9    249.4   0.001157271   0.00950  -0.08661   0.02308  -0.03831
   4   42212.0    236.9   0.000214722   0.00167  -0.03621  -0.01800   0.00629
   5   42962.0    232.8   0.013610412   0.10429   0.28544  -0.08336  -0.12597
   6   44244.5    226.0   0.000874149   0.00650   0.07843   0.01789   0.00572
   7   45515.1    219.7   0.066303990   0.47958  -0.62172   0.30404  -0.02445
   8   46007.1    217.4   0.119678749   0.85638   0.82827  -0.39399   0.12299
   9   46358.0    215.7   0.018506031   0.13142  -0.24437   0.25965  -0.06545
  10   47048.3    212.5   0.070323304   0.49207   0.67234  -0.14733  -0.13536
  11   47611.4    210.0   0.857786454   5.93121  -2.28007   0.85494   0.03940
  12   48048.3    208.1   0.033920864   0.23242   0.21562  -0.42533  -0.07082
  13   48181.3    207.5   0.206938178   1.41396  -0.65747   0.98113   0.13810
  14   48460.4    206.4   0.119537277   0.81207  -0.39075  -0.80310   0.12008
  15   48953.9    204.3   0.006409278   0.04310  -0.20608   0.01560   0.01970
  16   49687.5    201.3   0.023654409   0.15673  -0.35026  -0.16756  -0.07727
  17   49834.0    200.7   0.010411289   0.06878  -0.25902   0.04099  -0.00216
  18   50248.4    199.0   0.027981682   0.18333  -0.41758  -0.08339  -0.04472
  19   50743.9    197.1   0.004873714   0.03162   0.16776  -0.05764   0.01236
  20   51080.4    195.8   0.035503030   0.22882  -0.46855   0.08743  -0.04037
  21   51440.6    194.4   0.011228942   0.07186  -0.22284   0.08177   0.12457
  22   51506.7    194.1   0.142961409   0.91376   0.88406  -0.35602   0.07383
  23   52125.5    191.8   0.000616128   0.00389   0.05975   0.00477  -0.01726
  24   52792.1    189.4   0.002611106   0.01628  -0.10683   0.05610   0.04149
  25   52953.5    188.8   0.001838464   0.01143   0.08918   0.01699   0.05646
  26   53490.1    187.0   0.000691982   0.00426  -0.01605  -0.02117  -0.05961
  27   53937.3    185.4   0.126614973   0.77281   0.50222   0.71033   0.12656
  28   54296.9    184.2   0.000755644   0.00458  -0.02055   0.03448  -0.05451
  29   54444.0    183.7   0.005631123   0.03405   0.14877   0.04015   0.10151
  30   54656.9    183.0   0.030108456   0.18135  -0.03606  -0.42285  -0.03533
  31   55128.6    181.4   0.006879441   0.04108   0.19862   0.04008  -0.00526
  32   55642.0    179.7   0.001893055   0.01120   0.09625  -0.03687   0.02401
  33   55989.7    178.6   0.030082481   0.17688  -0.41506  -0.06258   0.02624
  34   56322.1    177.6   0.074241840   0.43396   0.22898   0.60542  -0.12243
  35   56786.4    176.1   0.016095342   0.09331  -0.07960  -0.29032   0.05186
  36   56854.6    175.9   0.028728807   0.16635  -0.39764   0.04882   0.07650
  37   57064.8    175.2   0.002326100   0.01342  -0.04394   0.08656   0.06322
  38   57389.8    174.2   0.012755804   0.07317  -0.20163  -0.17420   0.04660
  39   57559.1    173.7   0.000865867   0.00495  -0.03147   0.03179   0.05433
  40   57818.3    173.0   0.006865979   0.03909   0.02080  -0.15534   0.12055
  41   57897.9    172.7   0.004306824   0.02449   0.11627  -0.07464  -0.07348
  42   57960.4    172.5   0.013140854   0.07464  -0.19431   0.19033   0.02561
  43   58183.4    171.9   0.004095230   0.02317   0.03731  -0.11579  -0.09150
  44   58772.9    170.1   0.025463765   0.14263  -0.12712  -0.33379  -0.12272
  45   58849.7    169.9   0.016048188   0.08978  -0.09850   0.24523   0.14120
  46   58982.4    169.5   0.046677922   0.26053   0.25808   0.33264   0.28858
  47   59223.5    168.9   0.042853381   0.23821  -0.40009  -0.27315   0.05944
  48   59316.5    168.6   0.038758288   0.21511  -0.10597  -0.45050  -0.03053
  49   59480.0    168.1   0.035513772   0.19656  -0.43827  -0.03276   0.05841
  50   59809.6    167.2   0.056856369   0.31296  -0.02614   0.55803  -0.02964
  51   59947.0    166.8   0.001888836   0.01037  -0.04696  -0.02340   0.08729
  52   60242.0    166.0   0.027393129   0.14970   0.00942  -0.38618   0.02178
  53   60312.2    165.8   0.001958661   0.01069  -0.04381   0.09247   0.01490
  54   60791.1    164.5   0.061203923   0.33145  -0.41221  -0.39988  -0.04031
  55   61259.7    163.2   0.010482687   0.05633  -0.16556   0.16186  -0.05220
  56   61457.2    162.7   0.062754452   0.33616  -0.26286  -0.51629   0.02264
  57   61772.0    161.9   0.005459103   0.02909   0.16539   0.01391  -0.03934
  58   61975.7    161.4   0.010466932   0.05560   0.05984   0.22125  -0.05539
  59   62237.3    160.7   0.148011534   0.78293   0.57476   0.67274  -0.00118
  60   62332.8    160.4   0.005669359   0.02994   0.00418   0.17150   0.02267
  61   62895.4    159.0   0.019786820   0.10357   0.12727  -0.27981  -0.09527
  62   62971.1    158.8   0.083245939   0.43521   0.47888   0.44935   0.06299
  63   63002.2    158.7   0.013098436   0.06844  -0.13523   0.21860   0.04870
  64   63201.0    158.2   0.021225156   0.11056   0.23713   0.22293   0.06805
  65   63315.2    157.9   0.013469131   0.07003   0.25645   0.05076   0.04109
  66   63552.0    157.4   0.025611373   0.13267  -0.08688  -0.32469  -0.14035
  67   63720.7    156.9   0.019448444   0.10048   0.03711   0.31447  -0.01456
  68   63785.7    156.8   0.017785901   0.09180   0.28875   0.05782  -0.07127
  69   63972.4    156.3   0.025559835   0.13153   0.28801  -0.21604   0.04376
  70   63991.8    156.3   0.003668813   0.01887   0.01899   0.10719   0.08381
  71   64242.3    155.7   0.004266676   0.02186  -0.13415   0.06210  -0.00353
  72   64440.2    155.2   0.008143011   0.04160  -0.12113   0.02981   0.16137
  73   64482.1    155.1   0.006913038   0.03529   0.08780   0.16341  -0.02973
  74   64522.7    155.0   0.027229894   0.13893  -0.14250  -0.34233  -0.03789
  75   64598.6    154.8   0.010022499   0.05108   0.09486   0.19932  -0.04848
  76   64671.7    154.6   0.008146461   0.04147  -0.09371  -0.17855   0.02839
  77   64809.4    154.3   0.003611558   0.01835  -0.11477  -0.04705  -0.05440
  78   64897.9    154.1   0.013134112   0.06663  -0.23594  -0.07652  -0.07142
  79   64938.2    154.0   0.015109841   0.07660   0.06958   0.25757   0.07360
  80   65072.4    153.7   0.005362218   0.02713   0.03856  -0.12987  -0.09368
  81   65104.9    153.6   0.003349592   0.01694  -0.07823   0.08407  -0.06123
  82   65240.3    153.3   0.001040121   0.00525   0.06657  -0.02206   0.01818
  83   65462.1    152.8   0.018755687   0.09432   0.29878   0.00026   0.07110
  84   65531.6    152.6   0.006017497   0.03023  -0.11423  -0.12956  -0.01986
  85   65540.3    152.6   0.003526246   0.01771  -0.06581  -0.10393  -0.05079
  86   65914.1    151.7   0.005626249   0.02810  -0.04182   0.04201   0.15680
  87   66000.3    151.5   0.000139870   0.00070  -0.00431  -0.01663   0.02007
  88   66044.2    151.4   0.006259825   0.03120  -0.11107   0.02854   0.13436
  89   66429.3    150.5   0.001478678   0.00733  -0.02633  -0.05552   0.05960
  90   66559.4    150.2   0.012568029   0.06216  -0.19251   0.05552   0.14839
  91   66692.1    149.9   0.001694607   0.00837   0.06140  -0.04634  -0.04948
  92   66798.0    149.7   0.009197042   0.04533  -0.16569  -0.13334   0.00964
  93   66950.1    149.4   0.005654080   0.02780   0.05907  -0.14026  -0.06813
  94   67081.5    149.1   0.023012113   0.11294   0.28455   0.15368   0.09136
  95   67107.7    149.0   0.010048682   0.04930   0.21317  -0.05698   0.02471
  96   67349.9    148.5   0.002122596   0.01038  -0.03198   0.08990  -0.03565
  97   67490.0    148.2   0.032150930   0.15683   0.19916  -0.34048  -0.03520
  98   67872.9    147.3   0.019920250   0.09662  -0.27290   0.06489  -0.13394
  99   68004.8    147.0   0.012830371   0.06211  -0.22465   0.00623   0.10774
 100   68209.4    146.6   0.016560245   0.07993  -0.27951  -0.03273  -0.02706
 101   68326.6    146.4   0.015928946   0.07675  -0.21917  -0.15933   0.05770
 102   68371.4    146.3   0.003535706   0.01702  -0.01578  -0.12048  -0.04754
 103   68547.6    145.9   0.001680812   0.00807   0.08430  -0.01218   0.02859
 104   68707.5    145.5   0.006093000   0.02919  -0.00778  -0.16561   0.04134
 105   68861.4    145.2   0.001124094   0.00537  -0.06031  -0.03631  -0.02045
 106   68956.2    145.0   0.001060270   0.00506  -0.03619   0.06125  -0.00072
 107   69121.7    144.7   0.018778815   0.08944  -0.20155  -0.18607   0.11913
 108   69310.7    144.3   0.011595970   0.05508   0.18103  -0.05361  -0.13940
 109   69322.6    144.3   0.002551928   0.01212   0.04980   0.05805  -0.07918
 110   69474.1    143.9   0.013115902   0.06215   0.24678   0.03047   0.01803
 111   69493.3    143.9   0.027901718   0.13218  -0.26272  -0.09650   0.23204
 112   69770.3    143.3   0.016547157   0.07808   0.11623   0.25394  -0.00928
 113   69925.8    143.0   0.002659059   0.01252   0.08060   0.07629  -0.01419
 114   69958.2    142.9   0.012458765   0.05863  -0.11302   0.18268  -0.11173
 115   70106.4    142.6   0.000798490   0.00375   0.04122   0.03246  -0.03158
 116   70190.7    142.5   0.005214637   0.02446   0.10773  -0.07730   0.08293
 117   70266.6    142.3   0.015614720   0.07316  -0.11837   0.23452   0.06440
 118   70306.9    142.2   0.012369104   0.05792   0.06678  -0.22250   0.06289
 119   70390.8    142.1   0.017672760   0.08265  -0.07610  -0.26305  -0.08758
 120   70497.3    141.8   0.007584660   0.03542   0.02122  -0.18219  -0.04213
 121   70548.5    141.7   0.006472639   0.03020  -0.02189   0.14852   0.08755
 122   70624.6    141.6   0.021130996   0.09850   0.14527  -0.16534  -0.22374
 123   70821.8    141.2   0.003391261   0.01576   0.01659   0.05653   0.11087
 124   71026.6    140.8   0.001193886   0.00553  -0.04326  -0.05935  -0.01183
 125   71152.6    140.5   0.004602150   0.02129   0.07836   0.04878   0.11302
 126   71207.1    140.4   0.054739196   0.25308  -0.45279  -0.21704  -0.03080
 127   71248.9    140.4   0.010552925   0.04876   0.14982   0.15981   0.02784
 128   71273.9    140.3   0.014018560   0.06475   0.13907  -0.00989  -0.21287
 129   71360.7    140.1   0.018447298   0.08510   0.18580  -0.02277   0.22375
 130   71495.0    139.9   0.003315456   0.01527  -0.04596   0.11455  -0.00573
 131   71577.5    139.7   0.002602575   0.01197   0.02416  -0.10663   0.00406
 132   71694.4    139.5   0.000368806   0.00169  -0.00304   0.03926   0.01195
 133   71851.4    139.2   0.002832190   0.01298   0.08156   0.07511   0.02612
 134   71892.4    139.1   0.004881614   0.02235  -0.06838   0.08011   0.10611
 135   71993.3    138.9   0.028305259   0.12943  -0.05187  -0.00301  -0.35600
 136   72059.2    138.8   0.029277703   0.13376   0.11041  -0.24853  -0.24454
 137   72120.2    138.7   0.059236108   0.27040  -0.06431  -0.46588   0.22185
 138   72221.0    138.5   0.026070993   0.11884   0.00948  -0.33568   0.07791
 139   72421.5    138.1   0.036826589   0.16741   0.40810  -0.02393   0.01688
 140   72535.0    137.9   0.011133429   0.05053  -0.08700   0.20563  -0.02604
 141   72561.3    137.8   0.000406555   0.00184   0.04205   0.00057   0.00874
 142   72587.4    137.8   0.009696938   0.04398   0.17286  -0.09545  -0.07063
 143   72643.0    137.7   0.031786428   0.14405   0.04917  -0.19062   0.32450
 144   72807.5    137.3   0.019756372   0.08933   0.12040   0.13360   0.23872
 145   72952.9    137.1   0.002877048   0.01298  -0.00818  -0.10545  -0.04239
 146   73069.1    136.9   0.005271141   0.02375   0.01932   0.14750   0.04026
 147   73190.3    136.6   0.051595200   0.23208   0.34349   0.25651   0.21976
 148   73216.6    136.6   0.006830979   0.03071  -0.11126   0.00166   0.13540
 149   73247.3    136.5   0.001262481   0.00567  -0.06556   0.02811   0.02420
 150   73339.7    136.4   0.017910442   0.08040  -0.23873   0.12927  -0.08181
 151   73458.0    136.1   0.018611152   0.08341   0.27452  -0.08830   0.01586
 152   73501.0    136.1   0.025273836   0.11320   0.33049   0.04311  -0.04606
 153   73628.9    135.8   0.024028933   0.10744  -0.06797   0.24278  -0.20947
 154   73633.4    135.8   0.004463291   0.01996  -0.07148   0.08861   0.08363
 155   73716.3    135.7   0.023900869   0.10674  -0.13777   0.29616   0.00672
 156   73909.4    135.3   0.011667694   0.05197   0.22320   0.02111  -0.04131
 157   74015.8    135.1   0.004534047   0.02017  -0.01180  -0.03592   0.13688
 158   74037.2    135.1   0.000228056   0.00101  -0.00890  -0.01284  -0.02775
 159   74230.9    134.7   0.003923405   0.01740   0.02465   0.09102  -0.09224
 160   74248.6    134.7   0.002811226   0.01246   0.05991   0.07942  -0.05068
 161   74324.9    134.5   0.001651698   0.00732   0.06878   0.03635   0.03555
 162   74372.1    134.5   0.000339924   0.00150   0.03726   0.00509   0.00950
 163   74400.6    134.4   0.017166391   0.07596   0.07632   0.22922  -0.13264
 164   74487.7    134.3   0.021855998   0.09660  -0.04375   0.30481  -0.04210
 165   74568.5    134.1   0.003010120   0.01329   0.01981   0.09401   0.06370
 166   74690.5    133.9   0.002614650   0.01152  -0.01943  -0.08801   0.05831
 167   74925.2    133.5   0.007416261   0.03259  -0.06103   0.16668  -0.03287
 168   74946.6    133.4   0.007426760   0.03262  -0.16837   0.06353   0.01548
 169   75042.0    133.3   0.002757989   0.01210   0.09285   0.03620  -0.04656
 170   75066.8    133.2   0.002777083   0.01218  -0.03278   0.10145  -0.02850
 171   75123.9    133.1   0.005953790   0.02609   0.12658   0.10032   0.00176
 172   75181.0    133.0   0.013647542   0.05976   0.00288  -0.22490  -0.09577
 173   75282.2    132.8   0.005012941   0.02192   0.04606   0.10761   0.09067
 174   75407.1    132.6   0.001479149   0.00646  -0.01656  -0.03966   0.06790
 175   75571.0    132.3   0.002753665   0.01200   0.04893   0.09723   0.01217
 176   75679.5    132.1   0.007106222   0.03091  -0.03878   0.07445   0.15449
 177   75797.7    131.9   0.001093755   0.00475  -0.01270   0.05343   0.04165
 178   75897.1    131.8   0.004929626   0.02138  -0.14582   0.01086  -0.00145
 179   76021.8    131.5   0.013994954   0.06061   0.20714   0.09458   0.09355
 180   76147.5    131.3   0.028620970   0.12374  -0.03911  -0.34279  -0.06861
 181   76274.4    131.1   0.004396539   0.01898  -0.13562  -0.00580   0.02348
 182   76396.4    130.9   0.002031865   0.00876   0.00567   0.08648   0.03527
 183   76417.0    130.9   0.003162536   0.01362  -0.07409   0.08418   0.03237
 184   76500.4    130.7   0.009660118   0.04157   0.11260   0.08590  -0.14668
 185   76548.5    130.6   0.002049097   0.00881   0.00598  -0.08012   0.04856
 186   76582.6    130.6   0.004973529   0.02138   0.10892   0.05697   0.07918
 187   76658.9    130.4   0.002343413   0.01006   0.02115  -0.09556   0.02200
 188   76789.7    130.2   0.007983416   0.03423  -0.11323  -0.07517   0.12552
 189   76832.9    130.2   0.010456828   0.04481  -0.07338  -0.08168  -0.18097
 190   76871.6    130.1   0.008319516   0.03563  -0.11795   0.14652   0.01575
 191   77004.0    129.9   0.026552836   0.11352  -0.18420  -0.27960   0.03764
 192   77077.1    129.7   0.014026041   0.05991  -0.19511   0.04510  -0.14073
 193   77133.4    129.6   0.004584050   0.01957   0.07842   0.11071   0.03406
 194   77275.1    129.4   0.002358820   0.01005   0.09960  -0.00244   0.01111
 195   77358.3    129.3   0.006151077   0.02618  -0.13964  -0.08004   0.01650
 196   77433.6    129.1   0.001583629   0.00673   0.03000  -0.03448   0.06815

Dispersion correction           -0.070310615
FINAL SINGLE POINT ENERGY      -619.029559902126

DIPOLE MOMENT
-------------
                                X             Y             Z
Electronic contribution:      9.06756       5.08576      -0.52114
Nuclear contribution   :     -9.44536      -5.31513       0.51541
                        -----------------------------------------
Total Dipole Moment    :     -0.37780      -0.22937      -0.00573
                        -----------------------------------------
Magnitude (a.u.)       :      0.44201
Magnitude (Debye)      :      1.12350

Rotational constants in cm-1:     0.031258     0.017125     0.011327
Rotational constants in MHz :   937.087977   513.383677   339.573419

                             ****ORCA TERMINATED NORMALLY****
TOTAL RUN TIME: 0 days 3 hours 25 minutes 26 seconds 192 msec
