                         Program Version 5.0.4 -  RELEASE  -
|  1> !M062x def2-tzvp opt freq tightscf
|  2>
|  3> %freq
|  4> Temp 298.15,10,20,50,100,6000,8000,10000
|  5> end
|  6>
|  7> %maxcore 4000
|  8> %pal
|  9> nprocs 3
| 10> end
| 11>
| 12>
| 13> %geom
| 14>   maxiter 2000
| 15>   end
| 16>
| 17> * xyz 0 1
| 18>   C   2.46362427987247     -2.85071308273857     -0.00000218907091
| 19>   C   1.27719400513090     -3.52585311672403     -0.00003902795947
| 20>   C   0.05064934326115     -2.82613554872827     -0.00011828018749
| 21>   C   -1.19925193688694     -3.46606389677068     -0.00015928151260
| 22>   C   -2.39885271805658     -2.87183824187673     -0.00023283554738
| 23>   C   -2.43518053153382     -1.44080024452875     -0.00027277196623
| 24>   C   -3.66777674509120     -0.75191121775761     -0.00034379554662
| 25>   C   -3.71279324924276      0.61270000430768     -0.00038290810371
| 26>   C   -2.51870888891228      1.35470401292599     -0.00035207453727
| 27>   C   -2.33852946574720      2.75004532075493     -0.00038523866368
| 28>   C   -1.29227857579710      3.37936032270345     -0.00036005870682
| 29>   C   0.02296635156368      2.87874227377718     -0.00029143038758
| 30>   C   1.23211767469076      3.59211777508479     -0.00026457178571
| 31>   C   2.42594730830480      2.92563510630820     -0.00019121984698
| 32>   C   2.44893445959464      1.52227723319545     -0.00014614397662
| 33>   C   3.55845924150033      0.65762020353451     -0.00006795876215
| 34>   C   3.57066637986837     -0.56331157183495     -0.00002324805222
| 35>   C   2.47403114247392     -1.44414615823703     -0.00004617494814
| 36>   C   1.25557023434205     -0.69183165762109     -0.00012491861115
| 37>   C   1.23800989899349      0.75081893774134     -0.00017659337158
| 38>   C   -0.00359548669936      1.44369816359284     -0.00024809051538
| 39>   C   -1.24385874208543      0.70472511229996     -0.00028011039122
| 40>   C   -1.22033926149096     -0.71624674943317     -0.00023589301594
| 41>   C   0.03056944314590     -1.40895937212992     -0.00016349124726
| 42>   H   1.25543248807529     -4.60779790743838     -0.00000593698860
| 43>   H   -3.32874432396662     -3.42840544994019     -0.00026138694326
| 44>   H   -4.58380467774224     -1.32989113444890     -0.00036599782084
| 45>   H   -4.65611295060898      1.14148914368134     -0.00043697075864
| 46>   H   1.19941226127863      4.67287271493635     -0.00030009286005
| 47>   H   3.36338199069149      3.46449630946482     -0.00016807868239
| 48> **                         ****END OF INPUT****
 Total Charge           Charge          ....    0
 Multiplicity           Mult            ....    1
 Number of Electrons    NEL             ....  150
FINAL SINGLE POINT ENERGY      -917.734739027821
FINAL SINGLE POINT ENERGY      -917.743139701383
FINAL SINGLE POINT ENERGY      -917.747998936902
FINAL SINGLE POINT ENERGY      -917.748612575800
FINAL SINGLE POINT ENERGY      -917.748929600384
FINAL SINGLE POINT ENERGY      -917.749085883227
FINAL SINGLE POINT ENERGY      -917.749216634763
FINAL SINGLE POINT ENERGY      -917.749276042506
FINAL SINGLE POINT ENERGY      -917.749315564146
FINAL SINGLE POINT ENERGY      -917.749339005377
FINAL SINGLE POINT ENERGY      -917.749349167240
FINAL SINGLE POINT ENERGY      -917.749352029166
FINAL SINGLE POINT ENERGY      -917.749353227317
                    ***********************HURRAY********************

CARTESIAN COORDINATES (ANGSTROEM)
---------------------------------
  C      2.386578   -2.816718   -0.000012
  C      1.338295   -3.584567   -0.000034
  C     -0.010632   -2.811356   -0.000120
  C     -1.180219   -3.412862   -0.000152
  C     -2.416013   -2.880835   -0.000228
  C     -2.435967   -1.449738   -0.000271
  C     -3.671900   -0.752716   -0.000345
  C     -3.714529    0.607737   -0.000387
  C     -2.515719    1.351931   -0.000357
  C     -2.335839    2.744141   -0.000390
  C     -1.288725    3.374222   -0.000362
  C      0.023114    2.873399   -0.000290
  C      1.233757    3.591995   -0.000259
  C      2.427184    2.932430   -0.000186
  C      2.455936    1.525127   -0.000145
  C      3.565330    0.671397   -0.000072
  C      3.589908   -0.552067   -0.000031
  C      2.504855   -1.430216   -0.000052
  C      1.267398   -0.691227   -0.000129
  C      1.245114    0.748249   -0.000176
  C     -0.001858    1.439059   -0.000249
  C     -1.242936    0.702662   -0.000281
  C     -1.218442   -0.720496   -0.000238
  C      0.036959   -1.398079   -0.000162
  H      1.260369   -4.656029   -0.000002
  H     -3.349147   -3.431944   -0.000253
  H     -4.588187   -1.330279   -0.000366
  H     -4.656797    1.138643   -0.000443
  H      1.195715    4.672620   -0.000292
  H      3.363535    3.472913   -0.000162

 Multiplicity           Mult            ....    1
 Number of Electrons    NEL             ....  150
 Basis Dimension        Dim             ....  780

ORBITAL ENERGIES
----------------

  NO   OCC          E(Eh)            E(eV)
   0   2.0000     -10.608569      -288.6738
   1   2.0000     -10.598691      -288.4050
   2   2.0000     -10.596820      -288.3541
   3   2.0000     -10.595128      -288.3081
   4   2.0000     -10.592302      -288.2312
   5   2.0000     -10.590620      -288.1854
   6   2.0000     -10.588720      -288.1337
   7   2.0000     -10.586832      -288.0823
   8   2.0000     -10.586766      -288.0805
   9   2.0000     -10.584568      -288.0207
  10   2.0000     -10.583389      -287.9886
  11   2.0000     -10.582263      -287.9580
  12   2.0000     -10.579475      -287.8821
  13   2.0000     -10.578530      -287.8564
  14   2.0000     -10.574591      -287.7493
  15   2.0000     -10.568642      -287.5874
  16   2.0000     -10.567609      -287.5593
  17   2.0000     -10.566825      -287.5379
  18   2.0000     -10.566128      -287.5190
  19   2.0000     -10.564582      -287.4769
  20   2.0000     -10.564213      -287.4668
  21   2.0000     -10.561347      -287.3889
  22   2.0000     -10.560037      -287.3532
  23   2.0000     -10.557352      -287.2802
  24   2.0000      -1.042083       -28.3565
  25   2.0000      -1.004413       -27.3315
  26   2.0000      -1.003232       -27.2993
  27   2.0000      -0.953306       -25.9408
  28   2.0000      -0.950973       -25.8773
  29   2.0000      -0.927372       -25.2351
  30   2.0000      -0.901792       -24.5390
  31   2.0000      -0.879820       -23.9411
  32   2.0000      -0.860510       -23.4157
  33   2.0000      -0.853816       -23.2335
  34   2.0000      -0.827777       -22.5250
  35   2.0000      -0.824114       -22.4253
  36   2.0000      -0.751979       -20.4624
  37   2.0000      -0.739235       -20.1156
  38   2.0000      -0.732573       -19.9343
  39   2.0000      -0.715969       -19.4825
  40   2.0000      -0.711821       -19.3696
  41   2.0000      -0.664619       -18.0852
  42   2.0000      -0.633529       -17.2392
  43   2.0000      -0.625579       -17.0229
  44   2.0000      -0.609991       -16.5987
  45   2.0000      -0.607129       -16.5208
  46   2.0000      -0.598716       -16.2919
  47   2.0000      -0.566788       -15.4231
  48   2.0000      -0.554042       -15.0763
  49   2.0000      -0.546802       -14.8792
  50   2.0000      -0.540207       -14.6998
  51   2.0000      -0.531444       -14.4613
  52   2.0000      -0.523666       -14.2497
  53   2.0000      -0.517071       -14.0702
  54   2.0000      -0.505493       -13.7552
  55   2.0000      -0.489542       -13.3211
  56   2.0000      -0.487856       -13.2752
  57   2.0000      -0.485518       -13.2116
  58   2.0000      -0.483547       -13.1580
  59   2.0000      -0.467825       -12.7302
  60   2.0000      -0.456661       -12.4264
  61   2.0000      -0.434218       -11.8157
  62   2.0000      -0.426677       -11.6105
  63   2.0000      -0.424708       -11.5569
  64   2.0000      -0.423813       -11.5325
  65   2.0000      -0.404497       -11.0069
  66   2.0000      -0.360552        -9.8111
  67   2.0000      -0.345500        -9.4015
  68   2.0000      -0.342908        -9.3310
  69   2.0000      -0.337866        -9.1938
  70   2.0000      -0.329446        -8.9647
  71   2.0000      -0.328715        -8.9448
  72   2.0000      -0.278250        -7.5716
  73   2.0000      -0.267673        -7.2837
  74   2.0000      -0.243866        -6.6359
  75   0.0000      -0.127000        -3.4558
  76   0.0000      -0.065778        -1.7899
  77   0.0000      -0.047094        -1.2815
  78   0.0000      -0.045867        -1.2481
  79   0.0000      -0.044016        -1.1977

MULLIKEN ATOMIC CHARGES
-----------------------
   0 C :   -0.000785
   1 C :   -0.270245
   2 C :    0.098983
   3 C :   -0.017353
   4 C :   -0.294533
   5 C :    0.130146
   6 C :   -0.145162
   7 C :   -0.233842
   8 C :    0.096846
   9 C :   -0.058453
  10 C :   -0.064106
  11 C :    0.085622
  12 C :   -0.195271
  13 C :   -0.204367
  14 C :    0.089634
  15 C :   -0.027795
  16 C :   -0.084202
  17 C :   -0.001281
  18 C :    0.051511
  19 C :    0.043653
  20 C :    0.021781
  21 C :   -0.025499
  22 C :   -0.003601
  23 C :    0.083304
  24 H :    0.182710
  25 H :    0.147145
  26 H :    0.140858
  27 H :    0.150375
  28 H :    0.151532
  29 H :    0.152396
Sum of atomic charges:   -0.0000000

LOEWDIN ATOMIC CHARGES
----------------------
   0 C :    0.025166
   1 C :   -0.061924
   2 C :   -0.097769
   3 C :    0.016744
   4 C :   -0.111000
   5 C :   -0.077242
   6 C :   -0.091166
   7 C :   -0.095563
   8 C :   -0.093594
   9 C :    0.019549
  10 C :    0.016203
  11 C :   -0.093470
  12 C :   -0.088459
  13 C :   -0.090874
  14 C :   -0.090964
  15 C :    0.023406
  16 C :    0.024615
  17 C :   -0.110924
  18 C :    0.017432
  19 C :    0.013405
  20 C :    0.012475
  21 C :    0.009719
  22 C :   -0.002165
  23 C :   -0.007283
  24 H :    0.160530
  25 H :    0.151376
  26 H :    0.153586
  27 H :    0.155287
  28 H :    0.156456
  29 H :    0.156449

  Mayer bond orders larger than 0.100000
B(  0-C ,  1-C ) :   1.8467 B(  0-C ,  3-C ) :   0.5376 B(  0-C , 17-C ) :   1.2374
B(  1-C ,  2-C ) :   0.7994 B(  1-C , 24-H ) :   0.9571 B(  2-C ,  3-C ) :   1.5431
B(  2-C , 23-C ) :   1.2189 B(  3-C ,  4-C ) :   1.6854 B(  4-C ,  5-C ) :   1.1385
B(  4-C , 25-H ) :   0.9441 B(  5-C ,  6-C ) :   1.2343 B(  5-C , 22-C ) :   1.2860
B(  6-C ,  7-C ) :   1.6023 B(  6-C , 26-H ) :   0.9403 B(  7-C ,  8-C ) :   1.2639
B(  7-C , 27-H ) :   0.9443 B(  8-C ,  9-C ) :   1.1623 B(  8-C , 21-C ) :   1.3082
B(  9-C , 10-C ) :   2.5379 B( 10-C , 11-C ) :   1.1638 B( 11-C , 12-C ) :   1.2736
B( 11-C , 20-C ) :   1.2784 B( 12-C , 13-C ) :   1.5511 B( 12-C , 28-H ) :   0.9520
B( 13-C , 14-C ) :   1.2740 B( 13-C , 29-H ) :   0.9505 B( 14-C , 15-C ) :   1.1742
B( 14-C , 19-C ) :   1.2654 B( 15-C , 16-C ) :   2.4594 B( 16-C , 17-C ) :   1.2190
B( 17-C , 18-C ) :   1.2391 B( 18-C , 19-C ) :   1.2462 B( 18-C , 23-C ) :   1.1699
B( 19-C , 20-C ) :   1.1483 B( 20-C , 21-C ) :   1.2360 B( 21-C , 22-C ) :   1.1548
B( 22-C , 23-C ) :   1.1922

FINAL SINGLE POINT ENERGY      -917.749354044631

DIPOLE MOMENT
-------------
                                X             Y             Z
Electronic contribution:      5.53448       0.21465       0.00022
Nuclear contribution   :     -6.23465      -0.13732      -0.00026
                        -----------------------------------------
Total Dipole Moment    :     -0.70017       0.07733      -0.00004
                        -----------------------------------------
Magnitude (a.u.)       :      0.70442
Magnitude (Debye)      :      1.79050

VIBRATIONAL FREQUENCIES
-----------------------

Scaling factor for frequencies =  1.000000000  (already applied!)

   0:         0.00 cm**-1
   1:         0.00 cm**-1
   2:         0.00 cm**-1
   3:         0.00 cm**-1
   4:         0.00 cm**-1
   5:         0.00 cm**-1
   6:        74.98 cm**-1
   7:        87.09 cm**-1
   8:       123.07 cm**-1
   9:       168.60 cm**-1
  10:       196.08 cm**-1
  11:       243.99 cm**-1
  12:       274.76 cm**-1
  13:       302.19 cm**-1
  14:       302.84 cm**-1
  15:       343.74 cm**-1
  16:       357.76 cm**-1
  17:       374.99 cm**-1
  18:       388.20 cm**-1
  19:       395.84 cm**-1
  20:       402.46 cm**-1
  21:       434.88 cm**-1
  22:       443.46 cm**-1
  23:       466.75 cm**-1
  24:       480.71 cm**-1
  25:       487.95 cm**-1
  26:       502.49 cm**-1
  27:       506.89 cm**-1
  28:       520.73 cm**-1
  29:       528.70 cm**-1
  30:       543.88 cm**-1
  31:       569.67 cm**-1
  32:       601.60 cm**-1
  33:       608.40 cm**-1
  34:       639.88 cm**-1
  35:       640.82 cm**-1
  36:       671.13 cm**-1
  37:       687.13 cm**-1
  38:       725.59 cm**-1
  39:       735.41 cm**-1
  40:       748.82 cm**-1
  41:       796.21 cm**-1
  42:       826.17 cm**-1
  43:       829.00 cm**-1
  44:       836.12 cm**-1
  45:       852.82 cm**-1
  46:       855.87 cm**-1
  47:       878.49 cm**-1
  48:       883.24 cm**-1
  49:       901.82 cm**-1
  50:       976.16 cm**-1
  51:       999.04 cm**-1
  52:      1000.84 cm**-1
  53:      1018.49 cm**-1
  54:      1059.69 cm**-1
  55:      1116.50 cm**-1
  56:      1150.32 cm**-1
  57:      1177.58 cm**-1
  58:      1207.62 cm**-1
  59:      1210.71 cm**-1
  60:      1227.35 cm**-1
  61:      1246.51 cm**-1
  62:      1257.19 cm**-1
  63:      1266.94 cm**-1
  64:      1296.22 cm**-1
  65:      1309.50 cm**-1
  66:      1346.49 cm**-1
  67:      1370.44 cm**-1
  68:      1383.25 cm**-1
  69:      1391.25 cm**-1
  70:      1424.02 cm**-1
  71:      1442.94 cm**-1
  72:      1455.53 cm**-1
  73:      1477.59 cm**-1
  74:      1484.83 cm**-1
  75:      1511.02 cm**-1
  76:      1585.95 cm**-1
  77:      1589.45 cm**-1
  78:      1606.86 cm**-1
  79:      1657.03 cm**-1
  80:      1697.15 cm**-1
  81:      1775.83 cm**-1
  82:      2109.39 cm**-1
  83:      2136.65 cm**-1
  84:      3198.88 cm**-1
  85:      3214.45 cm**-1
  86:      3231.37 cm**-1
  87:      3238.26 cm**-1
  88:      3246.02 cm**-1
  89:      3311.18 cm**-1

IR SPECTRUM
-----------

 Mode   freq       eps      Int      T**2         TX        TY        TZ
       cm**-1   L/(mol*cm) km/mol    a.u.
----------------------------------------------------------------------------
  6:     74.98   0.000021    0.10  0.000086  (-0.000004  0.000010  0.009270)
  7:     87.09   0.000131    0.66  0.000471  ( 0.000029  0.000020  0.021696)
  8:    123.07   0.000063    0.32  0.000160  ( 0.000015 -0.000020 -0.012640)
  9:    168.60   0.000433    2.19  0.000802  ( 0.000001  0.000007  0.028324)
 10:    196.08   0.001371    6.93  0.002182  ( 0.000048  0.000015 -0.046717)
 11:    243.99   0.000627    3.17  0.000801  ( 0.000009  0.000002  0.028309)
 12:    274.76   0.000191    0.97  0.000217  ( 0.000001  0.000026  0.014734)
 13:    302.19   0.070439  355.97  0.072740  (-0.263679 -0.056688 -0.000009)
 14:    302.84   0.000025    0.13  0.000026  (-0.000039  0.000007 -0.005087)
 15:    343.74   0.000090    0.45  0.000082  (-0.000009  0.000010  0.009037)
 16:    357.76   0.000378    1.91  0.000330  (-0.005731  0.017231 -0.000001)
 17:    374.99   0.014996   75.78  0.012479  (-0.101987 -0.045586  0.000001)
 18:    388.20   0.002200   11.12  0.001769  (-0.000017 -0.000035  0.042056)
 19:    395.84   0.032543  164.46  0.025656  (-0.136594 -0.083656 -0.000010)
 20:    402.46   0.000462    2.33  0.000358  (-0.018917 -0.000527  0.000001)
 21:    434.88   0.021465  108.48  0.015403  ( 0.123521  0.012072  0.000005)
 22:    443.46   0.000012    0.06  0.000009  ( 0.000001  0.000004 -0.002921)
 23:    466.75   0.011432   57.77  0.007644  (-0.040431 -0.077517 -0.000001)
 24:    480.71   0.000291    1.47  0.000189  (-0.000008  0.000036  0.013733)
 25:    487.95   0.005253   26.55  0.003360  (-0.052984  0.023502 -0.000004)
 26:    502.49   0.000932    4.71  0.000579  (-0.009377 -0.022162  0.000000)
 27:    506.89   0.011778   59.52  0.007251  ( 0.085146 -0.001024  0.000006)
 28:    520.73   0.001386    7.01  0.000831  ( 0.000009 -0.000032 -0.028824)
 29:    528.70   0.000850    4.29  0.000502  ( 0.010184  0.019946  0.000001)
 30:    543.88   0.000822    4.15  0.000472  ( 0.000009 -0.000016 -0.021715)
 31:    569.67   0.000173    0.87  0.000095  ( 0.000008 -0.000002 -0.009734)
 32:    601.60   0.000006    0.03  0.000003  (-0.000003 -0.000007 -0.001748)
 33:    608.40   0.003389   17.13  0.001738  ( 0.039334  0.013830  0.000002)
 34:    639.88   0.008641   43.67  0.004214  ( 0.063243 -0.014642  0.000015)
 35:    640.82   0.000232    1.17  0.000113  ( 0.000078 -0.000015 -0.010624)
 36:    671.13   0.001680    8.49  0.000781  (-0.022419 -0.016691 -0.000002)
 37:    687.13   0.000420    2.12  0.000191  ( 0.000029  0.000037 -0.013809)
 38:    725.59   0.007194   36.36  0.003094  (-0.049705 -0.024972 -0.000002)
 39:    735.41   0.000136    0.69  0.000058  (-0.006955  0.003085 -0.000000)
 40:    748.82   0.003085   15.59  0.001286  ( 0.000009 -0.000006 -0.035854)
 41:    796.21   0.000301    1.52  0.000118  (-0.000013  0.000013  0.010865)
 42:    826.17   0.000509    2.57  0.000192  ( 0.000007  0.000001  0.013869)
 43:    829.00   0.001913    9.67  0.000720  ( 0.000028  0.000017 -0.026836)
 44:    836.12   0.002144   10.84  0.000800  ( 0.026762 -0.009165 -0.000016)
 45:    852.82   0.006439   32.54  0.002356  (-0.000041 -0.000016 -0.048541)
 46:    855.87   0.001501    7.59  0.000547  ( 0.015391 -0.017622 -0.000048)
 47:    878.49   0.011935   60.31  0.004240  (-0.064906 -0.005171  0.000034)
 48:    883.24   0.004102   20.73  0.001449  ( 0.000029 -0.000036  0.038068)
 49:    901.82   0.001059    5.35  0.000367  (-0.000038  0.000001  0.019144)
 50:    976.16   0.001302    6.58  0.000416  ( 0.016972 -0.011320  0.000002)
 51:    999.04   0.000047    0.24  0.000015  (-0.000015  0.000028  0.003827)
 52:   1000.84   0.000010    0.05  0.000003  (-0.000023 -0.000059  0.001794)
 53:   1018.49   0.005244   26.50  0.001607  ( 0.038773  0.010163  0.000004)
 54:   1059.69   0.005911   29.87  0.001741  ( 0.040614  0.009549  0.000002)
 55:   1116.50   0.003654   18.47  0.001021  ( 0.030559 -0.009349  0.000001)
 56:   1150.32   0.000278    1.41  0.000075  ( 0.000166  0.008686 -0.000001)
 57:   1177.58   0.003107   15.70  0.000823  ( 0.006856 -0.027865  0.000001)
 58:   1207.62   0.003391   17.14  0.000876  (-0.028464 -0.008124 -0.000001)
 59:   1210.71   0.000302    1.53  0.000078  (-0.008463 -0.002501 -0.000000)
 60:   1227.35   0.003278   16.57  0.000833  ( 0.028811  0.001840  0.000001)
 61:   1246.51   0.001310    6.62  0.000328  ( 0.016936 -0.006405  0.000001)
 62:   1257.19   0.001320    6.67  0.000328  (-0.007920 -0.016275  0.000000)
 63:   1266.94   0.003616   18.27  0.000891  (-0.029603 -0.003786 -0.000001)
 64:   1296.22   0.002360   11.93  0.000568  (-0.023677  0.002750 -0.000001)
 65:   1309.50   0.000464    2.35  0.000111  (-0.008082 -0.006731 -0.000000)
 66:   1346.49   0.000502    2.54  0.000116  ( 0.010783 -0.000243  0.000000)
 67:   1370.44   0.010783   54.49  0.002455  ( 0.049108  0.006609  0.000001)
 68:   1383.25   0.000196    0.99  0.000044  ( 0.006622 -0.000543  0.000001)
 69:   1391.25   0.000232    1.17  0.000052  ( 0.007093 -0.001303  0.000000)
 70:   1424.02   0.000786    3.97  0.000172  (-0.004677  0.012262 -0.000001)
 71:   1442.94   0.010161   51.35  0.002197  (-0.043965 -0.016265 -0.000001)
 72:   1455.53   0.001853    9.36  0.000397  (-0.013534 -0.014631 -0.000000)
 73:   1477.59   0.009986   50.46  0.002109  ( 0.044954  0.009388  0.000002)
 74:   1484.83   0.006227   31.47  0.001309  (-0.026917 -0.024169 -0.000000)
 75:   1511.02   0.003985   20.14  0.000823  (-0.027659  0.007614 -0.000001)
 76:   1585.95   0.000041    0.21  0.000008  (-0.000003 -0.002851 -0.000000)
 77:   1589.45   0.005964   30.14  0.001171  ( 0.012813 -0.031730  0.000002)
 78:   1606.86   0.004942   24.98  0.000960  ( 0.027995 -0.013269  0.000002)
 79:   1657.03   0.002308   11.67  0.000435  (-0.012918 -0.016366  0.000000)
 80:   1697.15   0.000707    3.57  0.000130  ( 0.006076  0.009647 -0.000001)
 81:   1775.83   0.020131  101.73  0.003538  (-0.059459 -0.001475 -0.000003)
 82:   2109.39   0.000263    1.33  0.000039  (-0.005714 -0.002510 -0.000001)
 83:   2136.65   0.000333    1.68  0.000049  ( 0.005438 -0.004361 -0.000000)
 84:   3198.88   0.003878   19.60  0.000378  (-0.019413 -0.001188 -0.000001)
 85:   3214.45   0.000625    3.16  0.000061  ( 0.007768  0.000591  0.000000)
 86:   3231.37   0.000010    0.05  0.000001  (-0.000965  0.000140 -0.000000)
 87:   3238.26   0.000752    3.80  0.000072  ( 0.008411  0.001316  0.000001)
 88:   3246.02   0.000132    0.67  0.000013  ( 0.001923  0.002998 -0.000000)
 89:   3311.18   0.009045   45.71  0.000852  (-0.002634 -0.029078  0.000001)

--------------------------
THERMOCHEMISTRY AT 10000.00K
--------------------------

Temperature         ... 10000.00 K
Pressure            ... 1.00 atm
Total Mass          ... 294.31 AMU

Throughout the following assumptions are being made:
  (1) The electronic state is orbitally nondegenerate
  (2) There are no thermally accessible electronically excited states
  (3) Hindered rotations indicated by low frequency modes are not
      treated as such but are treated as vibrations and this may
      cause some error
  (4) All equations used are the standard statistical mechanics
      equations for an ideal gas
  (5) All vibrations are strictly harmonic

freq.      74.98  E(vib)   ...      19.77
freq.      87.09  E(vib)   ...      19.75
freq.     123.07  E(vib)   ...      19.70
freq.     168.60  E(vib)   ...      19.63
freq.     196.08  E(vib)   ...      19.59
freq.     243.99  E(vib)   ...      19.53
freq.     274.76  E(vib)   ...      19.48
freq.     302.19  E(vib)   ...      19.44
freq.     302.84  E(vib)   ...      19.44
freq.     343.74  E(vib)   ...      19.39
freq.     357.76  E(vib)   ...      19.37
freq.     374.99  E(vib)   ...      19.34
freq.     388.20  E(vib)   ...      19.32
freq.     395.84  E(vib)   ...      19.31
freq.     402.46  E(vib)   ...      19.30
freq.     434.88  E(vib)   ...      19.26
freq.     443.46  E(vib)   ...      19.25
freq.     466.75  E(vib)   ...      19.21
freq.     480.71  E(vib)   ...      19.19
freq.     487.95  E(vib)   ...      19.18
freq.     502.49  E(vib)   ...      19.16
freq.     506.89  E(vib)   ...      19.16
freq.     520.73  E(vib)   ...      19.14
freq.     528.70  E(vib)   ...      19.13
freq.     543.88  E(vib)   ...      19.11
freq.     569.67  E(vib)   ...      19.07
freq.     601.60  E(vib)   ...      19.02
freq.     608.40  E(vib)   ...      19.02
freq.     639.88  E(vib)   ...      18.97
freq.     640.82  E(vib)   ...      18.97
freq.     671.13  E(vib)   ...      18.93
freq.     687.13  E(vib)   ...      18.91
freq.     725.59  E(vib)   ...      18.85
freq.     735.41  E(vib)   ...      18.84
freq.     748.82  E(vib)   ...      18.82
freq.     796.21  E(vib)   ...      18.76
freq.     826.17  E(vib)   ...      18.71
freq.     829.00  E(vib)   ...      18.71
freq.     836.12  E(vib)   ...      18.70
freq.     852.82  E(vib)   ...      18.68
freq.     855.87  E(vib)   ...      18.67
freq.     878.49  E(vib)   ...      18.64
freq.     883.24  E(vib)   ...      18.64
freq.     901.82  E(vib)   ...      18.61
freq.     976.16  E(vib)   ...      18.51
freq.     999.04  E(vib)   ...      18.48
freq.    1000.84  E(vib)   ...      18.48
freq.    1018.49  E(vib)   ...      18.45
freq.    1059.69  E(vib)   ...      18.40
freq.    1116.50  E(vib)   ...      18.32
freq.    1150.32  E(vib)   ...      18.27
freq.    1177.58  E(vib)   ...      18.24
freq.    1207.62  E(vib)   ...      18.20
freq.    1210.71  E(vib)   ...      18.19
freq.    1227.35  E(vib)   ...      18.17
freq.    1246.51  E(vib)   ...      18.14
freq.    1257.19  E(vib)   ...      18.13
freq.    1266.94  E(vib)   ...      18.12
freq.    1296.22  E(vib)   ...      18.08
freq.    1309.50  E(vib)   ...      18.06
freq.    1346.49  E(vib)   ...      18.01
freq.    1370.44  E(vib)   ...      17.98
freq.    1383.25  E(vib)   ...      17.96
freq.    1391.25  E(vib)   ...      17.95
freq.    1424.02  E(vib)   ...      17.91
freq.    1442.94  E(vib)   ...      17.88
freq.    1455.53  E(vib)   ...      17.86
freq.    1477.59  E(vib)   ...      17.83
freq.    1484.83  E(vib)   ...      17.83
freq.    1511.02  E(vib)   ...      17.79
freq.    1585.95  E(vib)   ...      17.69
freq.    1589.45  E(vib)   ...      17.69
freq.    1606.86  E(vib)   ...      17.66
freq.    1657.03  E(vib)   ...      17.60
freq.    1697.15  E(vib)   ...      17.54
freq.    1775.83  E(vib)   ...      17.44
freq.    2109.39  E(vib)   ...      17.01
freq.    2136.65  E(vib)   ...      16.97
freq.    3198.88  E(vib)   ...      15.65
freq.    3214.45  E(vib)   ...      15.63
freq.    3231.37  E(vib)   ...      15.61
freq.    3238.26  E(vib)   ...      15.60
freq.    3246.02  E(vib)   ...      15.59
freq.    3311.18  E(vib)   ...      15.51

------------
INNER ENERGY
------------

The inner energy is: U= E(el) + E(ZPE) + E(vib) + E(rot) + E(trans)
    E(el)   - is the total energy from the electronic structure calculation
              = E(kin-el) + E(nuc-el) + E(el-el) + E(nuc-nuc)
    E(ZPE)  - the the zero temperature vibrational energy from the frequency calculation
    E(vib)  - the the finite temperature correction to E(ZPE) due to population
              of excited vibrational states
    E(rot)  - is the rotational thermal energy
    E(trans)- is the translational thermal energy

Summary of contributions to the inner energy U:
Electronic energy                ...   -917.74935404 Eh
Zero point energy                ...      0.20423254 Eh     128.16 kcal/mol
Thermal vibrational correction   ...      2.46387047 Eh    1546.10 kcal/mol
Thermal rotational correction    ...      0.04750198 Eh      29.81 kcal/mol
Thermal translational correction ...      0.04750198 Eh      29.81 kcal/mol
-----------------------------------------------------------------------
Total thermal energy                   -914.98624708 Eh

Summary of corrections to the electronic energy:
(perhaps to be used in another calculation)
Total thermal correction                  2.55887442 Eh    1605.71 kcal/mol
Non-thermal (ZPE) correction              0.20423254 Eh     128.16 kcal/mol
-----------------------------------------------------------------------
Total correction                          2.76310697 Eh    1733.87 kcal/mol

--------
ENTHALPY
--------

The enthalpy is H = U + kB*T
                kB is Boltzmann's constant
Total free energy                 ...   -914.98624708 Eh
Thermal Enthalpy correction       ...      0.03166893 Eh      19.87 kcal/mol
-----------------------------------------------------------------------
Total Enthalpy                    ...   -914.95457815 Eh

Note: Rotational entropy computed according to Herzberg
Infrared and Raman Spectra, Chapter V,1, Van Nostrand Reinhold, 1945
Point Group:  Cs, Symmetry Number:   1
Rotational constants in cm-1:     0.012166     0.011455     0.005900

Vibrational entropy computed according to the QRRHO of S. Grimme
Chem.Eur.J. 2012 18 9955

-------
ENTROPY
-------

The entropy contributions are T*S = T*(S(el)+S(vib)+S(rot)+S(trans))
     S(el)   - electronic entropy
     S(vib)  - vibrational entropy

                             ****ORCA TERMINATED NORMALLY****
TOTAL RUN TIME: 0 days 5 hours 25 minutes 26 seconds 909 msec
