                         Program Version 5.0.4 -  RELEASE  -
|  1> !M062X def2-tzvp PAL4 TIGHTOPT FREQ
|  2>
|  3> %freq
|  4> Temp 298.15,10,20,50,100,6000,8000,10000
|  5> end
|  6>
|  7> %geom
|  8> maxiter 5000
|  9> end
| 10>
| 11>
| 12>
| 13> * xyz 0 1
| 14>   C   2.45791983499341     -2.80268931379768     -0.00000793519644
| 15>   C   1.28608761308438     -3.49706883370209     -0.00003643606214
| 16>   C   0.03470547919465     -2.82650100714450     -0.00011895547508
| 17>   C   -1.19909611030651     -3.52926406052669     -0.00014738304165
| 18>   C   -2.38727532547159     -2.86387815648029     -0.00022974228995
| 19>   C   -2.43307513493588     -1.44447575303296     -0.00027036473986
| 20>   C   -3.65942351028343     -0.73056692575933     -0.00034869983218
| 21>   C   -3.68143184744779      0.63183680863156     -0.00038756598292
| 22>   C   -2.47654311552349      1.38171086633990     -0.00035715694906
| 23>   C   -2.47435650264592      2.81046534061019     -0.00039831731937
| 24>   C   -1.28561443050281      3.43802142880253     -0.00036151343355
| 25>   C   -0.02057223287027      2.83388218261706     -0.00029010794623
| 26>   C   1.21086686736911      3.53893902602452     -0.00025402239824
| 27>   C   2.39489324957599      2.86551829309080     -0.00018393811888
| 28>   C   2.43517090494280      1.44582754720977     -0.00014049013964
| 29>   C   3.65975900430544      0.72697243056351     -0.00006992784603
| 30>   C   3.67546036802878     -0.63516446298208     -0.00002698908555
| 31>   C   2.46811813995863     -1.38295180399054     -0.00005240219282
| 32>   C   1.24061543792698     -0.69496199420878     -0.00012711748511
| 33>   C   1.22474219035332      0.72698621586077     -0.00017741356338
| 34>   C   -0.01566516709535      1.42103164152461     -0.00024506128700
| 35>   C   -1.24356348643455      0.69923344199718     -0.00028346088976
| 36>   C   -1.22400277498297     -0.72338676000015     -0.00023734960533
| 37>   C   0.01693487392421     -1.41913103104816     -0.00016297130775
| 38>   H   3.40501735040542     -3.32906588787472      0.00005627444163
| 39>   H   1.29296308352502     -4.58060438188898      0.00000142672494
| 40>   H   -1.17896310310274     -4.61257131284734     -0.00011513591155
| 41>   H   -4.58586789409211     -1.29266910376159     -0.00037146429946
| 42>   H   -4.62408845924854      1.16575491725399     -0.00044556872067
| 43>   H   -3.41518424261775      3.34878172120577     -0.00045725814046
| 44>   H   1.18854626437870      4.62103847897618     -0.00028959104089
| 45>   H   3.33130215861300      3.41052642430950     -0.00015763965944
| 46>   H   4.58800492413600      1.28586263822177     -0.00004835142171
| 47>   H   4.61660270482137     -1.17213723898180      0.00002811587814
| 48>   **                         ****END OF INPUT****
 Total Charge           Charge          ....    0
 Multiplicity           Mult            ....    1
 Number of Electrons    NEL             ....  154
FINAL SINGLE POINT ENERGY      -920.366740738442
FINAL SINGLE POINT ENERGY      -920.369955838888
FINAL SINGLE POINT ENERGY      -920.371593905225
FINAL SINGLE POINT ENERGY      -920.371703450344
FINAL SINGLE POINT ENERGY      -920.371828360379
FINAL SINGLE POINT ENERGY      -920.371895349334
FINAL SINGLE POINT ENERGY      -920.371948782203
FINAL SINGLE POINT ENERGY      -920.371963777260
FINAL SINGLE POINT ENERGY      -920.371967654567
FINAL SINGLE POINT ENERGY      -920.371968498140
FINAL SINGLE POINT ENERGY      -920.371969075660
                    ***********************HURRAY********************

CARTESIAN COORDINATES (ANGSTROEM)
---------------------------------
  C      2.470376   -2.805237   -0.001039
  C      1.303024   -3.508248   -0.001391
  C      0.054654   -2.838284   -0.001036
  C     -1.192983   -3.552912    0.001490
  C     -2.299279   -2.812412    0.000718
  C     -2.462756   -1.434185    0.000030
  C     -3.682361   -0.705288   -0.002487
  C     -3.689335    0.653078   -0.001897
  C     -2.473617    1.387708    0.000525
  C     -2.474364    2.823986    0.001233
  C     -1.288975    3.442107   -0.001890
  C     -0.037027    2.839637   -0.000450
  C      1.205632    3.528725   -0.000278
  C      2.388688    2.856165    0.000314
  C      2.430161    1.438659    0.000388
  C      3.656924    0.724012    0.000066
  C      3.676474   -0.636805   -0.000511
  C      2.470398   -1.386984   -0.000637
  C      1.239446   -0.703925   -0.000091
  C      1.219366    0.720661    0.000371
  C     -0.024038    1.405130    0.000345
  C     -1.251987    0.697444    0.000782
  C     -1.224738   -0.733122    0.001335
  C      0.016941   -1.430233    0.000041
  H      3.420895   -3.325845   -0.001209
  H      1.313059   -4.591276   -0.001782
  H     -1.184013   -4.638197    0.006047
  H     -4.607273   -1.263677   -0.003627
  H     -4.624068    1.200473   -0.002905
  H     -3.431766    3.337434    0.001757
  H      1.180570    4.609786   -0.000551
  H      3.324227    3.402458    0.000361
  H      4.582533    1.286954    0.000119
  H      4.618198   -1.172484   -0.000857

 Multiplicity           Mult            ....    1
 Number of Electrons    NEL             ....  154
 Basis Dimension        Dim             ....  804

ORBITAL ENERGIES
----------------

  NO   OCC          E(Eh)            E(eV)
   0   2.0000     -10.581819      -287.9459
   1   2.0000     -10.579046      -287.8705
   2   2.0000     -10.576935      -287.8130
   3   2.0000     -10.574189      -287.7383
   4   2.0000     -10.572181      -287.6837
   5   2.0000     -10.570116      -287.6275
   6   2.0000     -10.568935      -287.5953
   7   2.0000     -10.567434      -287.5545
   8   2.0000     -10.566965      -287.5417
   9   2.0000     -10.566661      -287.5335
  10   2.0000     -10.565568      -287.5037
  11   2.0000     -10.563703      -287.4530
  12   2.0000     -10.563406      -287.4449
  13   2.0000     -10.563017      -287.4343
  14   2.0000     -10.560604      -287.3686
  15   2.0000     -10.558937      -287.3233
  16   2.0000     -10.557485      -287.2838
  17   2.0000     -10.557197      -287.2759
  18   2.0000     -10.556388      -287.2539
  19   2.0000     -10.554929      -287.2142
  20   2.0000     -10.554352      -287.1985
  21   2.0000     -10.554123      -287.1923
  22   2.0000     -10.553605      -287.1782
  23   2.0000     -10.552553      -287.1496
  24   2.0000      -1.030801       -28.0495
  25   2.0000      -0.991325       -26.9753
  26   2.0000      -0.990067       -26.9411
  27   2.0000      -0.939638       -25.5688
  28   2.0000      -0.937919       -25.5221
  29   2.0000      -0.919283       -25.0150
  30   2.0000      -0.886760       -24.1300
  31   2.0000      -0.869648       -23.6643
  32   2.0000      -0.851727       -23.1767
  33   2.0000      -0.848957       -23.1013
  34   2.0000      -0.817681       -22.2502
  35   2.0000      -0.813871       -22.1465
  36   2.0000      -0.734223       -19.9792
  37   2.0000      -0.731569       -19.9070
  38   2.0000      -0.727874       -19.8065
  39   2.0000      -0.718669       -19.5560
  40   2.0000      -0.714945       -19.4547
  41   2.0000      -0.652759       -17.7625
  42   2.0000      -0.638769       -17.3818
  43   2.0000      -0.628782       -17.1100
  44   2.0000      -0.614563       -16.7231
  45   2.0000      -0.608088       -16.5469
  46   2.0000      -0.597583       -16.2611
  47   2.0000      -0.555573       -15.1179
  48   2.0000      -0.552953       -15.0466
  49   2.0000      -0.542480       -14.7616
  50   2.0000      -0.539597       -14.6832
  51   2.0000      -0.528723       -14.3873
  52   2.0000      -0.519556       -14.1378
  53   2.0000      -0.511899       -13.9295
  54   2.0000      -0.500932       -13.6310
  55   2.0000      -0.498285       -13.5590
  56   2.0000      -0.494157       -13.4467
  57   2.0000      -0.483120       -13.1464
  58   2.0000      -0.472907       -12.8685
  59   2.0000      -0.472800       -12.8656
  60   2.0000      -0.471031       -12.8174
  61   2.0000      -0.452893       -12.3239
  62   2.0000      -0.447149       -12.1675
  63   2.0000      -0.434938       -11.8353
  64   2.0000      -0.433894       -11.8069
  65   2.0000      -0.410601       -11.1730
  66   2.0000      -0.409282       -11.1371
  67   2.0000      -0.395586       -10.7645
  68   2.0000      -0.391651       -10.6574
  69   2.0000      -0.391342       -10.6490
  70   2.0000      -0.341379        -9.2894
  71   2.0000      -0.334058        -9.0902
  72   2.0000      -0.318189        -8.6584
  73   2.0000      -0.317424        -8.6375
  74   2.0000      -0.260185        -7.0800
  75   2.0000      -0.259591        -7.0638
  76   2.0000      -0.201408        -5.4806
  77   0.0000      -0.151983        -4.1357
  78   0.0000      -0.045874        -1.2483
  79   0.0000      -0.041837        -1.1384
  80   0.0000      -0.003122        -0.0849
  81   0.0000       0.001312         0.0357

MULLIKEN ATOMIC CHARGES
-----------------------
   0 C :   -0.188699
   1 C :   -0.171016
   2 C :    0.142578
   3 C :   -0.309104
   4 C :    0.021548
   5 C :    0.063985
   6 C :   -0.239806
   7 C :   -0.145199
   8 C :    0.141706
   9 C :   -0.320017
  10 C :   -0.046563
  11 C :    0.071976
  12 C :   -0.217582
  13 C :   -0.171876
  14 C :    0.093205
  15 C :   -0.180249
  16 C :   -0.174683
  17 C :    0.092409
  18 C :   -0.002741
  19 C :    0.012738
  20 C :    0.107557
  21 C :    0.005089
  22 C :    0.076346
  23 C :   -0.068429
  24 H :    0.136836
  25 H :    0.137975
  26 H :    0.149462
  27 H :    0.146649
  28 H :    0.138699
  29 H :    0.142778
  30 H :    0.146096
  31 H :    0.136183
  32 H :    0.136273
  33 H :    0.135878
Sum of atomic charges:   -0.0000000

LOEWDIN ATOMIC CHARGES
----------------------
   0 C :   -0.094334
   1 C :   -0.101415
   2 C :   -0.081004
   3 C :   -0.122351
   4 C :    0.054557
   5 C :   -0.117076
   6 C :   -0.091182
   7 C :   -0.095169
   8 C :   -0.079536
   9 C :   -0.131746
  10 C :    0.010405
  11 C :   -0.111206
  12 C :   -0.089932
  13 C :   -0.098267
  14 C :   -0.091552
  15 C :   -0.098259
  16 C :   -0.097347
  17 C :   -0.094236
  18 C :   -0.002023
  19 C :   -0.005828
  20 C :    0.008961
  21 C :   -0.011555
  22 C :    0.015188
  23 C :   -0.008420
  24 H :    0.151234
  25 H :    0.151311
  26 H :    0.159253
  27 H :    0.155434
  28 H :    0.152510
  29 H :    0.155807
  30 H :    0.154164
  31 H :    0.151665
  32 H :    0.151084
  33 H :    0.150863

  Mayer bond orders larger than 0.100000
B(  0-C ,  1-C ) :   1.6337 B(  0-C , 17-C ) :   1.2455 B(  0-C , 24-H ) :   0.9334
B(  1-C ,  2-C ) :   1.2538 B(  1-C , 25-H ) :   0.9311 B(  2-C ,  3-C ) :   1.0737
B(  2-C , 23-C ) :   1.2989 B(  3-C ,  4-C ) :   1.7655 B(  3-C , 26-H ) :   0.9368
B(  4-C ,  5-C ) :   1.1802 B(  4-C , 10-C ) :   0.6229 B(  5-C ,  6-C ) :   1.2383
B(  5-C , 22-C ) :   1.2826 B(  6-C ,  7-C ) :   1.6145 B(  6-C , 27-H ) :   0.9451
B(  7-C ,  8-C ) :   1.2242 B(  7-C , 28-H ) :   0.9340 B(  8-C ,  9-C ) :   1.0816
B(  8-C , 21-C ) :   1.3362 B(  9-C , 10-C ) :   1.7816 B(  9-C , 29-H ) :   0.9428
B( 10-C , 11-C ) :   1.1667 B( 11-C , 12-C ) :   1.2364 B( 11-C , 20-C ) :   1.2720
B( 12-C , 13-C ) :   1.5986 B( 12-C , 30-H ) :   0.9456 B( 13-C , 14-C ) :   1.2303
B( 13-C , 31-H ) :   0.9377 B( 14-C , 15-C ) :   1.2486 B( 14-C , 19-C ) :   1.3130
B( 15-C , 16-C ) :   1.6461 B( 15-C , 32-H ) :   0.9252 B( 16-C , 17-C ) :   1.2439
B( 16-C , 33-H ) :   0.9273 B( 17-C , 18-C ) :   1.3050 B( 18-C , 19-C ) :   1.1374
B( 18-C , 23-C ) :   1.1655 B( 19-C , 20-C ) :   1.1868 B( 20-C , 21-C ) :   1.1364
B( 21-C , 22-C ) :   1.1492 B( 22-C , 23-C ) :   1.1831

FINAL SINGLE POINT ENERGY      -920.371970175214

DIPOLE MOMENT
-------------
                                X             Y             Z
Electronic contribution:     -3.61309       0.43554       0.00449
Nuclear contribution   :      4.15131      -1.03496      -0.00086
                        -----------------------------------------
Total Dipole Moment    :      0.53822      -0.59943       0.00363
                        -----------------------------------------
Magnitude (a.u.)       :      0.80561
Magnitude (Debye)      :      2.04770

VIBRATIONAL FREQUENCIES
-----------------------

Scaling factor for frequencies =  1.000000000  (already applied!)

   0:         0.00 cm**-1
   1:         0.00 cm**-1
   2:         0.00 cm**-1
   3:         0.00 cm**-1
   4:         0.00 cm**-1
   5:         0.00 cm**-1
   6:      -374.16 cm**-1 ***imaginary mode***
   7:       -45.06 cm**-1 ***imaginary mode***
   8:        87.62 cm**-1
   9:        93.83 cm**-1
  10:       132.17 cm**-1
  11:       197.32 cm**-1
  12:       245.66 cm**-1
  13:       292.78 cm**-1
  14:       296.67 cm**-1
  15:       305.57 cm**-1
  16:       367.38 cm**-1
  17:       369.67 cm**-1
  18:       384.69 cm**-1
  19:       387.45 cm**-1
  20:       425.67 cm**-1
  21:       438.72 cm**-1
  22:       463.54 cm**-1
  23:       473.37 cm**-1
  24:       493.46 cm**-1
  25:       495.42 cm**-1
  26:       504.22 cm**-1
  27:       520.41 cm**-1
  28:       560.30 cm**-1
  29:       570.47 cm**-1
  30:       585.13 cm**-1
  31:       600.66 cm**-1
  32:       639.92 cm**-1
  33:       658.58 cm**-1
  34:       660.86 cm**-1
  35:       680.96 cm**-1
  36:       688.77 cm**-1
  37:       730.99 cm**-1
  38:       773.37 cm**-1
  39:       776.03 cm**-1
  40:       782.17 cm**-1
  41:       795.09 cm**-1
  42:       826.51 cm**-1
  43:       830.85 cm**-1
  44:       834.76 cm**-1
  45:       843.85 cm**-1
  46:       871.28 cm**-1
  47:       877.15 cm**-1
  48:       884.57 cm**-1
  49:       924.21 cm**-1
  50:       945.45 cm**-1
  51:       979.22 cm**-1
  52:       983.10 cm**-1
  53:       992.10 cm**-1
  54:       992.57 cm**-1
  55:      1000.73 cm**-1
  56:      1011.73 cm**-1
  57:      1052.44 cm**-1
  58:      1128.46 cm**-1
  59:      1139.04 cm**-1
  60:      1163.70 cm**-1
  61:      1174.83 cm**-1
  62:      1191.50 cm**-1
  63:      1195.69 cm**-1
  64:      1210.65 cm**-1
  65:      1235.77 cm**-1
  66:      1238.09 cm**-1
  67:      1248.12 cm**-1
  68:      1253.01 cm**-1
  69:      1282.64 cm**-1
  70:      1302.07 cm**-1
  71:      1328.16 cm**-1
  72:      1365.56 cm**-1
  73:      1376.24 cm**-1
  74:      1387.33 cm**-1
  75:      1404.28 cm**-1
  76:      1424.31 cm**-1
  77:      1441.07 cm**-1
  78:      1445.74 cm**-1
  79:      1469.52 cm**-1
  80:      1479.10 cm**-1
  81:      1484.95 cm**-1
  82:      1530.11 cm**-1
  83:      1534.19 cm**-1
  84:      1541.11 cm**-1
  85:      1570.12 cm**-1
  86:      1599.75 cm**-1
  87:      1638.18 cm**-1
  88:      1672.35 cm**-1
  89:      1677.37 cm**-1
  90:      1685.87 cm**-1
  91:      1694.23 cm**-1
  92:      3164.30 cm**-1
  93:      3179.07 cm**-1
  94:      3203.51 cm**-1
  95:      3205.05 cm**-1
  96:      3211.13 cm**-1
  97:      3212.65 cm**-1
  98:      3221.11 cm**-1
  99:      3222.04 cm**-1
 100:      3237.85 cm**-1
 101:      3247.25 cm**-1

IR SPECTRUM
-----------

 Mode   freq       eps      Int      T**2         TX        TY        TZ
       cm**-1   L/(mol*cm) km/mol    a.u.
----------------------------------------------------------------------------
  8:     87.62   0.000105    0.53  0.000375  ( 0.000110 -0.000030  0.019375)
  9:     93.83   0.000191    0.96  0.000634  ( 0.000116  0.000933  0.025164)
 10:    132.17   0.000516    2.61  0.001219  ( 0.000073 -0.002226  0.034840)
 11:    197.32   0.000494    2.49  0.000781  (-0.000091 -0.006040  0.027278)
 12:    245.66   0.000005    0.02  0.000006  (-0.000620 -0.002139  0.001019)
 13:    292.78   0.362926  1834.08  0.386833  (-0.098241 -0.614151  0.000275)
 14:    296.67   0.000354    1.79  0.000373  ( 0.002880  0.018291 -0.005451)
 15:    305.57   0.000026    0.13  0.000026  ( 0.001086  0.002981  0.004003)
 16:    367.38   0.003088   15.61  0.002623  ( 0.001476  0.050806  0.006299)
 17:    369.67   0.003125   15.79  0.002638  ( 0.001298 -0.010774  0.050203)
 18:    384.69   0.000120    0.61  0.000097  ( 0.007838  0.005926  0.000910)
 19:    387.45   0.006853   34.63  0.005520  ( 0.007149 -0.073951 -0.000375)
 20:    425.67   0.000029    0.14  0.000021  ( 0.000953  0.001231 -0.004304)
 21:    438.72   0.215779  1090.46  0.153485  (-0.062199 -0.386802 -0.000536)
 22:    463.54   0.000038    0.19  0.000026  ( 0.000099  0.003566 -0.003594)
 23:    473.37   0.006327   31.97  0.004171  (-0.003805 -0.064470 -0.000093)
 24:    493.46   0.000382    1.93  0.000241  ( 0.000143 -0.003373  0.015163)
 25:    495.42   0.001643    8.30  0.001035  ( 0.001570  0.032124  0.000769)
 26:    504.22   0.000164    0.83  0.000102  (-0.003840  0.009326  0.000181)
 27:    520.41   0.122863  620.90  0.073675  (-0.047171 -0.267300 -0.000277)
 28:    560.30   0.000257    1.30  0.000143  (-0.000917 -0.002770  0.011591)
 29:    570.47   0.000225    1.13  0.000123  (-0.007215  0.008414 -0.000053)
 30:    585.13   0.003102   15.67  0.001654  (-0.000423 -0.002034 -0.040618)
 31:    600.66   0.000019    0.10  0.000010  (-0.000447 -0.001035  0.002939)
 32:    639.92   0.000178    0.90  0.000087  (-0.007284  0.005815  0.000011)
 33:    658.58   0.000191    0.97  0.000091  ( 0.000270 -0.000736  0.009493)
 34:    660.86   0.000442    2.23  0.000209  (-0.000460 -0.000767  0.014420)
 35:    680.96   0.000055    0.28  0.000025  ( 0.000099  0.004999  0.000050)
 36:    688.77   0.000032    0.16  0.000014  ( 0.003522  0.001403  0.000001)
 37:    730.99   0.029187  147.50  0.012460  ( 0.027736  0.108125 -0.000221)
 38:    773.37   0.000442    2.23  0.000178  ( 0.000002 -0.000894  0.013323)
 39:    776.03   0.002065   10.44  0.000831  (-0.000820 -0.028807 -0.000102)
 40:    782.17   0.000012    0.06  0.000005  ( 0.000758  0.000635 -0.001956)
 41:    795.09   0.000062    0.31  0.000024  ( 0.000090 -0.000447  0.004919)
 42:    826.51   0.003049   15.41  0.001151  ( 0.002659  0.033823  0.000091)
 43:    830.85   0.000005    0.02  0.000002  (-0.000196  0.000036 -0.001315)
 44:    834.76   0.000239    1.21  0.000089  ( 0.001246 -0.009365 -0.000034)
 45:    843.85   0.004496   22.72  0.001663  ( 0.000404 -0.000286  0.040772)
 46:    871.28   0.000001    0.01  0.000000  ( 0.000111  0.000069  0.000614)
 47:    877.15   0.007223   36.50  0.002570  ( 0.000329 -0.000039  0.050692)
 48:    884.57   0.014321   72.37  0.005052  (-0.000067 -0.000003 -0.071080)
 49:    924.21   0.000052    0.26  0.000017  ( 0.003758 -0.001836  0.000013)
 50:    945.45   0.000008    0.04  0.000003  ( 0.000140  0.000201 -0.001631)
 51:    979.22   0.074130  374.62  0.023624  ( 0.008193  0.153483  0.000043)
 52:    983.10   0.000006    0.03  0.000002  (-0.000023  0.001270  0.000565)
 53:    992.10   0.000001    0.00  0.000000  (-0.000262 -0.000474  0.000075)
 54:    992.57   0.000008    0.04  0.000002  (-0.000119 -0.000353  0.001516)
 55:   1000.73   0.000012    0.06  0.000004  (-0.000274 -0.000040  0.001951)
 56:   1011.73   0.000294    1.48  0.000091  (-0.009501 -0.000593 -0.000015)
 57:   1052.44   0.000094    0.48  0.000028  ( 0.001914  0.004933 -0.000108)
 58:   1128.46   0.019101   96.53  0.005282  ( 0.018340  0.070326 -0.000102)
 59:   1139.04   0.036464  184.28  0.009990  ( 0.021796  0.097545  0.000108)
 60:   1163.70   0.002100   10.62  0.000563  (-0.000967  0.023714 -0.000079)
 61:   1174.83   0.001972    9.97  0.000524  ( 0.001080 -0.022863  0.000010)
 62:   1191.50   0.002093   10.58  0.000548  ( 0.003491  0.023153  0.000001)
 63:   1195.69   0.001498    7.57  0.000391  (-0.000579 -0.019764 -0.000027)
 64:   1210.65   0.000039    0.20  0.000010  (-0.002869  0.001327 -0.000035)
 65:   1235.77   0.005016   25.35  0.001267  (-0.001968 -0.035537 -0.000029)
 66:   1238.09   0.005056   25.55  0.001274  (-0.004693 -0.035390 -0.000017)
 67:   1248.12   0.009783   49.44  0.002446  ( 0.004281 -0.049271  0.000020)
 68:   1253.01   0.000802    4.05  0.000200  (-0.001324 -0.014074  0.000004)
 69:   1282.64   0.068403  345.68  0.016642  ( 0.013458 -0.128301  0.000045)
 70:   1302.07   0.002054   10.38  0.000492  ( 0.018474 -0.012290  0.000003)
 71:   1328.16   0.024155  122.07  0.005675  ( 0.005528 -0.075132 -0.000021)
 72:   1365.56   0.004850   24.51  0.001108  (-0.000568  0.033285  0.000160)
 73:   1376.24   0.005816   29.39  0.001319  ( 0.006101  0.035798 -0.000084)
 74:   1387.33   0.038941  196.79  0.008759  (-0.015038 -0.092375  0.000230)
 75:   1404.28   0.000031    0.16  0.000007  (-0.002639 -0.000171  0.000045)
 76:   1424.31   0.000297    1.50  0.000065  (-0.002254  0.007751 -0.000098)
 77:   1441.07   0.002491   12.59  0.000539  (-0.001083  0.023201  0.000015)
 78:   1445.74   0.003108   15.71  0.000671  ( 0.006356  0.025108  0.000017)
 79:   1469.52   0.002660   13.44  0.000565  ( 0.001091 -0.023740 -0.000022)
 80:   1479.10   0.000032    0.16  0.000007  ( 0.002553  0.000401 -0.000206)
 81:   1484.95   0.000903    4.56  0.000190  ( 0.000441  0.013766 -0.000048)
 82:   1530.11   0.000952    4.81  0.000194  (-0.008506  0.011033  0.000222)
 83:   1534.19   0.000995    5.03  0.000202  (-0.012645  0.006522 -0.000124)
 84:   1541.11   0.002043   10.33  0.000414  ( 0.007040  0.019083  0.000021)
 85:   1570.12   0.001172    5.92  0.000233  (-0.010243 -0.011315  0.000097)
 86:   1599.75   0.000017    0.09  0.000003  ( 0.000458  0.001749  0.000144)
 87:   1638.18   0.021606  109.19  0.004116  (-0.003556 -0.064056  0.000112)
 88:   1672.35   0.013672   69.09  0.002551  ( 0.000659 -0.050506 -0.000173)
 89:   1677.37   0.006806   34.39  0.001266  (-0.003708  0.035389  0.000198)
 90:   1685.87   0.001872    9.46  0.000347  ( 0.018212  0.003854 -0.000045)
 91:   1694.23   0.001669    8.44  0.000307  ( 0.002398  0.017369  0.000164)
 92:   3164.30   0.005604   28.32  0.000553  (-0.001778  0.023442  0.000016)
 93:   3179.07   0.003844   19.43  0.000377  ( 0.001109  0.019393  0.000005)
 94:   3203.51   0.000219    1.11  0.000021  ( 0.004283  0.001725  0.000007)
 95:   3205.05   0.000234    1.18  0.000023  (-0.001718  0.004448 -0.000007)
 96:   3211.13   0.000443    2.24  0.000043  ( 0.003818  0.005333  0.000002)
 97:   3212.65   0.001027    5.19  0.000100  ( 0.008246 -0.005637 -0.000004)
 98:   3221.11   0.002513   12.70  0.000243  (-0.001936  0.015483  0.000003)
 99:   3222.04   0.002778   14.04  0.000269  ( 0.015849 -0.004226  0.000002)
100:   3237.85   0.001292    6.53  0.000125  (-0.006571 -0.009018  0.000008)
101:   3247.25   0.000185    0.94  0.000018  ( 0.004214 -0.000186  0.000012)

--------------------------
THERMOCHEMISTRY AT 10000.00K
--------------------------

Temperature         ... 10000.00 K
Pressure            ... 1.00 atm
Total Mass          ... 298.34 AMU

Throughout the following assumptions are being made:
  (1) The electronic state is orbitally nondegenerate
  (2) There are no thermally accessible electronically excited states
  (3) Hindered rotations indicated by low frequency modes are not
      treated as such but are treated as vibrations and this may
      cause some error
  (4) All equations used are the standard statistical mechanics
      equations for an ideal gas
  (5) All vibrations are strictly harmonic

freq.      87.62  E(vib)   ...      19.75
freq.      93.83  E(vib)   ...      19.74
freq.     132.17  E(vib)   ...      19.68
freq.     197.32  E(vib)   ...      19.59
freq.     245.66  E(vib)   ...      19.52
freq.     292.78  E(vib)   ...      19.46
freq.     296.67  E(vib)   ...      19.45
freq.     305.57  E(vib)   ...      19.44
freq.     367.38  E(vib)   ...      19.35
freq.     369.67  E(vib)   ...      19.35
freq.     384.69  E(vib)   ...      19.33
freq.     387.45  E(vib)   ...      19.32
freq.     425.67  E(vib)   ...      19.27
freq.     438.72  E(vib)   ...      19.25
freq.     463.54  E(vib)   ...      19.22
freq.     473.37  E(vib)   ...      19.20
freq.     493.46  E(vib)   ...      19.18
freq.     495.42  E(vib)   ...      19.17
freq.     504.22  E(vib)   ...      19.16
freq.     520.41  E(vib)   ...      19.14
freq.     560.30  E(vib)   ...      19.08
freq.     570.47  E(vib)   ...      19.07
freq.     585.13  E(vib)   ...      19.05
freq.     600.66  E(vib)   ...      19.03
freq.     639.92  E(vib)   ...      18.97
freq.     658.58  E(vib)   ...      18.95
freq.     660.86  E(vib)   ...      18.94
freq.     680.96  E(vib)   ...      18.91
freq.     688.77  E(vib)   ...      18.90
freq.     730.99  E(vib)   ...      18.85
freq.     773.37  E(vib)   ...      18.79
freq.     776.03  E(vib)   ...      18.78
freq.     782.17  E(vib)   ...      18.78
freq.     795.09  E(vib)   ...      18.76
freq.     826.51  E(vib)   ...      18.71
freq.     830.85  E(vib)   ...      18.71
freq.     834.76  E(vib)   ...      18.70
freq.     843.85  E(vib)   ...      18.69
freq.     871.28  E(vib)   ...      18.65
freq.     877.15  E(vib)   ...      18.64
freq.     884.57  E(vib)   ...      18.63
freq.     924.21  E(vib)   ...      18.58
freq.     945.45  E(vib)   ...      18.55
freq.     979.22  E(vib)   ...      18.51
freq.     983.10  E(vib)   ...      18.50
freq.     992.10  E(vib)   ...      18.49
freq.     992.57  E(vib)   ...      18.49
freq.    1000.73  E(vib)   ...      18.48
freq.    1011.73  E(vib)   ...      18.46
freq.    1052.44  E(vib)   ...      18.41
freq.    1128.46  E(vib)   ...      18.30
freq.    1139.04  E(vib)   ...      18.29
freq.    1163.70  E(vib)   ...      18.26
freq.    1174.83  E(vib)   ...      18.24
freq.    1191.50  E(vib)   ...      18.22
freq.    1195.69  E(vib)   ...      18.21
freq.    1210.65  E(vib)   ...      18.19
freq.    1235.77  E(vib)   ...      18.16
freq.    1238.09  E(vib)   ...      18.16
freq.    1248.12  E(vib)   ...      18.14
freq.    1253.01  E(vib)   ...      18.14
freq.    1282.64  E(vib)   ...      18.10
freq.    1302.07  E(vib)   ...      18.07
freq.    1328.16  E(vib)   ...      18.03
freq.    1365.56  E(vib)   ...      17.98
freq.    1376.24  E(vib)   ...      17.97
freq.    1387.33  E(vib)   ...      17.96
freq.    1404.28  E(vib)   ...      17.93
freq.    1424.31  E(vib)   ...      17.91
freq.    1441.07  E(vib)   ...      17.88
freq.    1445.74  E(vib)   ...      17.88
freq.    1469.52  E(vib)   ...      17.85
freq.    1479.10  E(vib)   ...      17.83
freq.    1484.95  E(vib)   ...      17.83
freq.    1530.11  E(vib)   ...      17.77
freq.    1534.19  E(vib)   ...      17.76
freq.    1541.11  E(vib)   ...      17.75
freq.    1570.12  E(vib)   ...      17.71
freq.    1599.75  E(vib)   ...      17.67
freq.    1638.18  E(vib)   ...      17.62
freq.    1672.35  E(vib)   ...      17.58
freq.    1677.37  E(vib)   ...      17.57
freq.    1685.87  E(vib)   ...      17.56
freq.    1694.23  E(vib)   ...      17.55
freq.    3164.30  E(vib)   ...      15.69
freq.    3179.07  E(vib)   ...      15.67
freq.    3203.51  E(vib)   ...      15.64
freq.    3205.05  E(vib)   ...      15.64
freq.    3211.13  E(vib)   ...      15.63
freq.    3212.65  E(vib)   ...      15.63
freq.    3221.11  E(vib)   ...      15.62
freq.    3222.04  E(vib)   ...      15.62
freq.    3237.85  E(vib)   ...      15.60
freq.    3247.25  E(vib)   ...      15.59

------------
INNER ENERGY
------------

The inner energy is: U= E(el) + E(ZPE) + E(vib) + E(rot) + E(trans)
    E(el)   - is the total energy from the electronic structure calculation
              = E(kin-el) + E(nuc-el) + E(el-el) + E(nuc-nuc)
    E(ZPE)  - the the zero temperature vibrational energy from the frequency calculation
    E(vib)  - the the finite temperature correction to E(ZPE) due to population
              of excited vibrational states
    E(rot)  - is the rotational thermal energy
    E(trans)- is the translational thermal energy

Summary of contributions to the inner energy U:
Electronic energy                ...   -920.37197018 Eh
Zero point energy                ...      0.25275476 Eh     158.61 kcal/mol
Thermal vibrational correction   ...      2.73468256 Eh    1716.04 kcal/mol
Thermal rotational correction    ...      0.04750198 Eh      29.81 kcal/mol
Thermal translational correction ...      0.04750198 Eh      29.81 kcal/mol
-----------------------------------------------------------------------
Total thermal energy                   -917.28952890 Eh

Summary of corrections to the electronic energy:
(perhaps to be used in another calculation)
Total thermal correction                  2.82968651 Eh    1775.65 kcal/mol
Non-thermal (ZPE) correction              0.25275476 Eh     158.61 kcal/mol
-----------------------------------------------------------------------
Total correction                          3.08244128 Eh    1934.26 kcal/mol

--------
ENTHALPY
--------

The enthalpy is H = U + kB*T
                kB is Boltzmann's constant
Total free energy                 ...   -917.28952890 Eh
Thermal Enthalpy correction       ...      0.03166893 Eh      19.87 kcal/mol
-----------------------------------------------------------------------
Total Enthalpy                    ...   -917.25785997 Eh

Note: Only C1 symmetry has been detected, increase convergence thresholds
      if your molecule has a higher symmetry. Symmetry factor of 1.0 is
      used for the rotational entropy correction.

Note: Rotational entropy computed according to Herzberg

Rotational constants in cm-1:     0.011570     0.011251     0.005704

                             ****ORCA TERMINATED NORMALLY****
TOTAL RUN TIME: 0 days 7 hours 30 minutes 49 seconds 215 msec
