                         Program Version 5.0.4 -  RELEASE  -
|  1> !B3LYP 6-311+G**  D4
|  2>
|  3> %maxcore 5000
|  4> %pal
|  5> nprocs 7
|  6> end
|  7>
|  8> %TDDFT
|  9>   NROOTS 1000
| 10>   END
| 11>
| 12> %scf
| 13> stabperform true
| 14> STABDTol 1e-5
| 15> STABRTol 1e-5
| 16> end
| 17>
| 18> * XYZ 0 1
| 19>   C   -2.82751333634880      1.20836971596305     -0.00035216715034
| 20>   C   -3.51680981376207     -0.00004593793465     -0.00031893402988
| 21>   C   -2.82746318780587     -1.20843291843139     -0.00015919924306
| 22>   C   -1.42626083348602     -1.23396706411881     -0.00002623546338
| 23>   C   -0.67904710569912     -2.45967702629690      0.00013932361388
| 24>   C   0.67914915638704     -2.45964885493026      0.00026962083791
| 25>   C   1.42631201680836     -1.23390786432054      0.00024725512815
| 26>   C   2.82751329003267     -1.20831586178800      0.00038244788282
| 27>   C   3.51680978597862      0.00009973995261      0.00035702951092
| 28>   C   2.82746317514507      1.20848672564749      0.00019512185117
| 29>   C   1.42626086593589      1.23402090942613      0.00005515755919
| 30>   C   0.67904718856134      2.45973090180710     -0.00011367098861
| 31>   C   -0.67914908572469      2.45970274227632     -0.00024615279271
| 32>   C   -1.42631201837767      1.23396177016681     -0.00022098098764
| 33>   C   -0.71192808837814      0.00001217173694     -0.00005538810756
| 34>   C   0.71192803628849      0.00004168861417      0.00008156244842
| 35>   H   -3.37422645053907      2.14653418853517     -0.00047936964425
| 36>   H   -4.60201416834651     -0.00006858971845     -0.00042021350307
| 37>   H   -3.37413748629340     -2.14662009867651     -0.00013560330719
| 38>   H   -1.22714370500393     -3.39718552234977      0.00016065690123
| 39>   H   1.22728452785670     -3.39713466456656      0.00039672586234
| 40>   H   3.37422637517911     -2.14648030606956      0.00051070937900
| 41>   H   4.60201407569047      0.00012244212410      0.00046399128340
| 42>   H   3.37413772286301      2.14667363712496      0.00017665446402
| 43>   H   1.22714358528332      3.39723950382365     -0.00013425902487
| 44>   H   -1.22728452224480      3.39718857200292     -0.00037408247989
| 45> **                         ****END OF INPUT****

CARTESIAN COORDINATES (ANGSTROEM)
---------------------------------
  C     -2.827513    1.208370   -0.000352
  C     -3.516810   -0.000046   -0.000319
  C     -2.827463   -1.208433   -0.000159
  C     -1.426261   -1.233967   -0.000026
  C     -0.679047   -2.459677    0.000139
  C      0.679149   -2.459649    0.000270
  C      1.426312   -1.233908    0.000247
  C      2.827513   -1.208316    0.000382
  C      3.516810    0.000100    0.000357
  C      2.827463    1.208487    0.000195
  C      1.426261    1.234021    0.000055
  C      0.679047    2.459731   -0.000114
  C     -0.679149    2.459703   -0.000246
  C     -1.426312    1.233962   -0.000221
  C     -0.711928    0.000012   -0.000055
  C      0.711928    0.000042    0.000082
  H     -3.374226    2.146534   -0.000479
  H     -4.602014   -0.000069   -0.000420
  H     -3.374137   -2.146620   -0.000136
  H     -1.227144   -3.397186    0.000161
  H      1.227285   -3.397135    0.000397
  H      3.374226   -2.146480    0.000511
  H      4.602014    0.000122    0.000464
  H      3.374138    2.146674    0.000177
  H      1.227144    3.397240   -0.000134
  H     -1.227285    3.397189   -0.000374

 Total Charge           Charge          ....    0
 Multiplicity           Mult            ....    1
 Number of Electrons    NEL             ....  106
 Basis Dimension        Dim             ....  412

ORBITAL ENERGIES
----------------

  NO   OCC          E(Eh)            E(eV)
   0   2.0000     -10.187233      -277.2087
   1   2.0000     -10.187214      -277.2082
   2   2.0000     -10.187139      -277.2061
   3   2.0000     -10.187130      -277.2059
   4   2.0000     -10.186324      -277.1840
   5   2.0000     -10.185915      -277.1728
   6   2.0000     -10.179345      -276.9941
   7   2.0000     -10.179344      -276.9940
   8   2.0000     -10.178636      -276.9748
   9   2.0000     -10.178634      -276.9747
  10   2.0000     -10.178009      -276.9577
  11   2.0000     -10.178006      -276.9576
  12   2.0000     -10.177408      -276.9414
  13   2.0000     -10.177406      -276.9413
  14   2.0000     -10.177145      -276.9342
  15   2.0000     -10.177143      -276.9341
  16   2.0000      -0.898045       -24.4371
  17   2.0000      -0.856071       -23.2949
  18   2.0000      -0.835633       -22.7387
  19   2.0000      -0.801773       -21.8174
  20   2.0000      -0.771014       -20.9804
  21   2.0000      -0.752608       -20.4795
  22   2.0000      -0.734696       -19.9921
  23   2.0000      -0.714497       -19.4424
  24   2.0000      -0.632796       -17.2192
  25   2.0000      -0.631947       -17.1962
  26   2.0000      -0.628049       -17.0901
  27   2.0000      -0.613414       -16.6918
  28   2.0000      -0.548749       -14.9322
  29   2.0000      -0.529859       -14.4182
  30   2.0000      -0.520935       -14.1754
  31   2.0000      -0.508737       -13.8434
  32   2.0000      -0.495734       -13.4896
  33   2.0000      -0.474951       -12.9241
  34   2.0000      -0.444958       -12.1079
  35   2.0000      -0.439400       -11.9567
  36   2.0000      -0.439092       -11.9483
  37   2.0000      -0.421582       -11.4718
  38   2.0000      -0.416819       -11.3422
  39   2.0000      -0.403647       -10.9838
  40   2.0000      -0.402557       -10.9541
  41   2.0000      -0.394676       -10.7397
  42   2.0000      -0.371445       -10.1075
  43   2.0000      -0.369936       -10.0665
  44   2.0000      -0.367997       -10.0137
  45   2.0000      -0.347977        -9.4689
  46   2.0000      -0.334782        -9.1099
  47   2.0000      -0.324821        -8.8388
  48   2.0000      -0.303823        -8.2674
  49   2.0000      -0.280087        -7.6216
  50   2.0000      -0.262022        -7.1300
  51   2.0000      -0.237151        -6.4532
  52   2.0000      -0.205127        -5.5818
  53   0.0000      -0.064865        -1.7651
  54   0.0000      -0.035339        -0.9616
  55   0.0000      -0.017945        -0.4883
  56   0.0000      -0.000000        -0.0000
  57   0.0000       0.000658         0.0179

MULLIKEN ATOMIC CHARGES
-----------------------
   0 C :   -0.265252
   1 C :   -0.074006
   2 C :   -0.277021
   3 C :    1.692952
   4 C :   -0.149620
   5 C :   -0.152536
   6 C :    1.713986
   7 C :   -0.271314
   8 C :   -0.076684
   9 C :   -0.262278
  10 C :    1.674656
  11 C :   -0.141566
  12 C :   -0.143913
  13 C :    1.702943
  14 C :   -3.104324
  15 C :   -3.100678
  16 H :    0.122457
  17 H :    0.126992
  18 H :    0.122448
  19 H :    0.122722
  20 H :    0.122737
  21 H :    0.122413
  22 H :    0.126976
  23 H :    0.122465
  24 H :    0.122736
  25 H :    0.122708
Sum of atomic charges:   -0.0000000

LOEWDIN ATOMIC CHARGES
----------------------
   0 C :   -0.047524
   1 C :   -0.055282
   2 C :   -0.047527
   3 C :   -0.068128
   4 C :   -0.036605
   5 C :   -0.036607
   6 C :   -0.068126
   7 C :   -0.047528
   8 C :   -0.055283
   9 C :   -0.047523
  10 C :   -0.068131
  11 C :   -0.036605
  12 C :   -0.036605
  13 C :   -0.068128
  14 C :   -0.034215
  15 C :   -0.034215
  16 H :    0.079300
  17 H :    0.074180
  18 H :    0.079300
  19 H :    0.080618
  20 H :    0.080618
  21 H :    0.079301
  22 H :    0.074180
  23 H :    0.079299
  24 H :    0.080618
  25 H :    0.080618

  Mayer bond orders larger than 0.100000
B(  0-C ,  1-C ) :   1.0842 B(  0-C ,  2-C ) :   0.5990 B(  0-C ,  3-C ) :   0.3989
B(  0-C ,  4-C ) :  -0.3059 B(  0-C ,  6-C ) :  -0.2680 B(  0-C ,  7-C ) :   0.1827
B(  0-C ,  8-C ) :  -0.1242 B(  0-C ,  9-C ) :   0.2562 B(  0-C , 12-C ) :  -0.8985
B(  0-C , 13-C ) :  -0.4594 B(  0-C , 14-C ) :   1.5203 B(  0-C , 15-C ) :   0.3423
B(  0-C , 16-H ) :   0.9430 B(  0-C , 25-H ) :  -0.1219 B(  1-C ,  2-C ) :   1.0816
B(  1-C ,  3-C ) :  -0.1808 B(  1-C ,  7-C ) :  -0.1211 B(  1-C ,  9-C ) :  -0.1248
B(  1-C , 13-C ) :  -0.1793 B(  1-C , 14-C ) :   0.3994 B(  1-C , 17-H ) :   0.9657
B(  2-C ,  3-C ) :  -0.4911 B(  2-C ,  4-C ) :  -0.8905 B(  2-C ,  7-C ) :   0.2480
B(  2-C ,  8-C ) :  -0.1209 B(  2-C ,  9-C ) :   0.1836 B(  2-C , 10-C ) :  -0.2766
B(  2-C , 12-C ) :  -0.3003 B(  2-C , 13-C ) :   0.3960 B(  2-C , 14-C ) :   1.5417
B(  2-C , 15-C ) :   0.3506 B(  2-C , 18-H ) :   0.9494 B(  2-C , 19-H ) :  -0.1205
B(  3-C ,  5-C ) :   0.2973 B(  3-C ,  6-C ) :  -0.2829 B(  3-C ,  9-C ) :  -0.2703
B(  3-C , 10-C ) :   1.1384 B(  3-C , 13-C ) :  -1.2403 B(  3-C , 14-C ) :   0.4858
B(  3-C , 15-C ) :  -0.9840 B(  3-C , 18-H ) :  -0.4006 B(  3-C , 19-H ) :  -0.4600
B(  4-C ,  5-C ) :   0.4059 B(  4-C ,  6-C ) :   0.3022 B(  4-C , 12-C ) :   0.1236
B(  4-C , 13-C ) :   0.1017 B(  4-C , 14-C ) :   1.5704 B(  4-C , 15-C ) :  -0.4181
B(  4-C , 19-H ) :   1.1731 B(  5-C ,  7-C ) :  -0.8916 B(  5-C ,  9-C ) :  -0.3093
B(  5-C , 10-C ) :   0.1049 B(  5-C , 11-C ) :   0.1258 B(  5-C , 14-C ) :  -0.4176
B(  5-C , 15-C ) :   1.5912 B(  5-C , 20-H ) :   1.1749 B(  6-C ,  7-C ) :  -0.4704
B(  6-C ,  8-C ) :  -0.1831 B(  6-C ,  9-C ) :   0.4022 B(  6-C , 10-C ) :  -1.2476
B(  6-C , 11-C ) :   0.1004 B(  6-C , 13-C ) :   1.1495 B(  6-C , 14-C ) :  -1.0170
B(  6-C , 15-C ) :   0.3913 B(  6-C , 20-H ) :  -0.4623 B(  6-C , 21-H ) :  -0.3977
B(  7-C ,  8-C ) :   1.0884 B(  7-C ,  9-C ) :   0.5959 B(  7-C , 10-C ) :   0.3962
B(  7-C , 11-C ) :  -0.3013 B(  7-C , 13-C ) :  -0.2708 B(  7-C , 14-C ) :   0.3451
B(  7-C , 15-C ) :   1.5272 B(  7-C , 20-H ) :  -0.1207 B(  7-C , 21-H ) :   0.9505
B(  8-C ,  9-C ) :   1.0871 B(  8-C , 10-C ) :  -0.1846 B(  8-C , 15-C ) :   0.4049
B(  8-C , 22-H ) :   0.9676 B(  9-C , 10-C ) :  -0.4659 B(  9-C , 11-C ) :  -0.9007
B(  9-C , 14-C ) :   0.3441 B(  9-C , 15-C ) :   1.5317 B(  9-C , 23-H ) :   0.9417
B(  9-C , 24-H ) :  -0.1229 B( 10-C , 12-C ) :   0.3030 B( 10-C , 13-C ) :  -0.2755
B( 10-C , 14-C ) :  -0.9714 B( 10-C , 15-C ) :   0.4754 B( 10-C , 23-H ) :  -0.4064
B( 10-C , 24-H ) :  -0.4562 B( 11-C , 12-C ) :   0.3811 B( 11-C , 13-C ) :   0.3097
B( 11-C , 14-C ) :  -0.4386 B( 11-C , 15-C ) :   1.5827 B( 11-C , 24-H ) :   1.1732
B( 12-C , 14-C ) :   1.6012 B( 12-C , 15-C ) :  -0.4279 B( 12-C , 25-H ) :   1.1710
B( 13-C , 14-C ) :   0.3888 B( 13-C , 15-C ) :  -1.0131 B( 13-C , 16-H ) :  -0.4034
B( 13-C , 25-H ) :  -0.4540 B( 14-C , 15-C ) :   4.7064 B( 14-C , 16-H ) :   0.6198
B( 14-C , 17-H ) :   0.1816 B( 14-C , 18-H ) :   0.6126 B( 14-C , 19-H ) :   0.4614
B( 14-C , 20-H ) :  -0.1037 B( 14-C , 24-H ) :  -0.1019 B( 14-C , 25-H ) :   0.4595
B( 15-C , 19-H ) :  -0.1031 B( 15-C , 20-H ) :   0.4625 B( 15-C , 21-H ) :   0.6100
B( 15-C , 22-H ) :   0.1824 B( 15-C , 23-H ) :   0.6259 B( 15-C , 24-H ) :   0.4615
B( 15-C , 25-H ) :  -0.1015

-----------------------------------------------------------------------------
         ABSORPTION SPECTRUM VIA TRANSITION ELECTRIC DIPOLE MOMENTS
-----------------------------------------------------------------------------
State   Energy    Wavelength  fosc         T2        TX        TY        TZ
        (cm-1)      (nm)                 (au**2)    (au)      (au)      (au)
-----------------------------------------------------------------------------
   1   30231.3    330.8   0.000421060   0.00459  -0.00001  -0.06771   0.00001
   2   31104.9    321.5   0.310377202   3.28500   1.81246   0.00004   0.00018
   3   34703.3    288.2   0.000000000   0.00000  -0.00000  -0.00000  -0.00000
   4   37706.5    265.2   0.000000000   0.00000  -0.00000  -0.00002   0.00000
   5   38666.3    258.6   0.328937309   2.80063   0.00003  -1.67351   0.00013
   6   39794.2    251.3   0.000000000   0.00000  -0.00000  -0.00000   0.00000
   7   40480.1    247.0   0.000000000   0.00000  -0.00000  -0.00000  -0.00002
   8   41547.6    240.7   0.000000000   0.00000   0.00001  -0.00001  -0.00000
   9   42471.5    235.5   0.000000001   0.00000  -0.00000  -0.00000  -0.00008
  10   42651.1    234.5   0.000164457   0.00127   0.00000  -0.00000  -0.03563
  11   44951.1    222.5   0.000000000   0.00000  -0.00004  -0.00000  -0.00000
  12   45020.2    222.1   0.000000000   0.00000   0.00000  -0.00000   0.00000
  13   45167.2    221.4   0.980548026   7.14696   2.67338   0.00005   0.00026
  14   45941.4    217.7   0.000000000   0.00000  -0.00000  -0.00000   0.00005
  15   46320.6    215.9   0.000000012   0.00000  -0.00000  -0.00000  -0.00029
  16   46601.8    214.6   0.000000000   0.00000   0.00001   0.00000  -0.00000
  17   47467.8    210.7   0.000000000   0.00000  -0.00000  -0.00000   0.00000
  18   47584.1    210.2   0.000000000   0.00000   0.00000  -0.00000  -0.00003
  19   47774.9    209.3   0.000000001   0.00000  -0.00000  -0.00000   0.00010
  20   47946.5    208.6   0.000000000   0.00000   0.00001  -0.00000   0.00000
  21   49133.5    203.5   0.002484669   0.01665   0.00001  -0.00001  -0.12903
  22   49248.0    203.1   0.013219079   0.08837  -0.00003   0.00002   0.29727
  23   49584.8    201.7   0.000000000   0.00000  -0.00000  -0.00000  -0.00000
  24   49704.2    201.2   0.001474567   0.00977   0.00001  -0.09883   0.00001
  25   50066.1    199.7   0.000000000   0.00000  -0.00000   0.00000   0.00002
  26   50180.6    199.3   0.000636307   0.00417  -0.00001  -0.06461   0.00001
  27   50550.2    197.8   0.000010498   0.00007   0.00000   0.00000  -0.00827
  28   50660.4    197.4   0.015506200   0.10077  -0.00004   0.00003   0.31744
  29   51023.9    196.0   0.000000040   0.00000  -0.00000  -0.00000   0.00051
  30   52048.6    192.1   0.000000000   0.00000   0.00000  -0.00000  -0.00000
  31   52160.5    191.7   0.777433734   4.90679  -2.21513  -0.00005  -0.00021
  32   52911.5    189.0   0.000000000   0.00000   0.00001  -0.00000  -0.00001
  33   53070.1    188.4   0.013929984   0.08641  -0.00002   0.00002   0.29396
  34   53493.5    186.9   0.000000000   0.00000   0.00000   0.00000  -0.00002
  35   54206.5    184.5   0.000000010   0.00000  -0.00025   0.00000  -0.00000
  36   54223.6    184.4   0.686268500   4.16659   2.04122   0.00005   0.00020
  37   54706.8    182.8   0.000000003   0.00000  -0.00000  -0.00000   0.00013
  38   54741.7    182.7   0.000000001   0.00000  -0.00006  -0.00000  -0.00000
  39   54955.3    182.0   0.000000001   0.00000   0.00000   0.00000   0.00007
  40   55069.7    181.6   0.000000000   0.00000   0.00001   0.00000   0.00001
  41   55481.7    180.2   0.000000001   0.00000   0.00001   0.00000   0.00009
  42   55540.1    180.1   0.000000000   0.00000   0.00000  -0.00000   0.00002
  43   56264.3    177.7   0.000000000   0.00000   0.00001   0.00001   0.00004
  44   56552.9    176.8   0.067210287   0.39125  -0.62550  -0.00001  -0.00006
  45   56718.0    176.3   0.000000018   0.00000   0.00001  -0.00000  -0.00033
  46   56981.5    175.5   0.000000000   0.00000   0.00000   0.00004  -0.00000
  47   57087.4    175.2   0.000000010   0.00000  -0.00000   0.00002   0.00024
  48   57172.6    174.9   0.000071116   0.00041   0.02024  -0.00010   0.00000
  49   57238.6    174.7   1.493900217   8.59227  -0.00003   2.93126  -0.00023
  50   57407.5    174.2   0.002703442   0.01550  -0.00002   0.00002   0.12451
  51   57507.2    173.9   0.000000000   0.00000  -0.00000   0.00000   0.00000
  52   57587.3    173.6   0.003054701   0.01746   0.00001   0.00001   0.13215
  53   57634.1    173.5   0.000000001   0.00000  -0.00004  -0.00004   0.00000
  54   57737.4    173.2   0.000001575   0.00001  -0.00000   0.00000   0.00300
  55   57826.1    172.9   0.470507627   2.67867  -1.63666   0.00002  -0.00016
  56   57937.7    172.6   0.001257998   0.00715   0.00015  -0.00000  -0.08455
  57   58382.4    171.3   0.000000000   0.00000  -0.00001  -0.00000  -0.00003
  58   58619.3    170.6   0.003905524   0.02193   0.00001  -0.00002  -0.14810
  59   58928.3    169.7   0.000000002   0.00000   0.00000   0.00000  -0.00011
  60   59090.7    169.2   0.000000002   0.00000  -0.00000   0.00000  -0.00011
  61   59123.0    169.1   0.000000000   0.00000   0.00000  -0.00000  -0.00005
  62   59345.0    168.5   0.000000000   0.00000   0.00000  -0.00000   0.00002
  63   59403.3    168.3   0.000000000   0.00000   0.00000   0.00000  -0.00001
  64   59914.0    166.9   0.030026557   0.16499  -0.00000   0.40619  -0.00003
  65   59988.8    166.7   0.001959425   0.01075   0.00001   0.00001  -0.10370
  66   60252.2    166.0   0.019670214   0.10748  -0.32784  -0.00001  -0.00003
  67   60413.3    165.5   0.000000000   0.00000  -0.00000  -0.00001  -0.00000
  68   60564.6    165.1   0.023148828   0.12583   0.00001  -0.35473   0.00003
  69   60691.1    164.8   0.000000000   0.00000  -0.00000   0.00000  -0.00001
  70   61298.5    163.1   0.055387582   0.29747   0.00001  -0.54540   0.00004
  71   61472.0    162.7   0.000000000   0.00000   0.00000  -0.00000  -0.00000
  72   62061.2    161.1   0.000145839   0.00077  -0.00001  -0.02781   0.00000
  73   62264.5    160.6   0.022139720   0.11706  -0.00007   0.00003   0.34214
  74   62367.1    160.3   0.246895480   1.30327   1.14161   0.00002   0.00012
  75   62387.7    160.3   0.000000001   0.00000   0.00006  -0.00001  -0.00001
  76   62553.9    159.9   0.000205779   0.00108  -0.00002   0.00000   0.03291
  77   62615.2    159.7   0.000000001   0.00000  -0.00001   0.00000  -0.00007
  78   62748.6    159.4   0.000239434   0.00126  -0.00000  -0.03544  -0.00000
  79   63022.9    158.7   0.011379048   0.05944  -0.00002   0.00002   0.24380
  80   63067.2    158.6   0.000000097   0.00000  -0.00000  -0.00000   0.00071
  81   63304.0    158.0   0.000000023   0.00000   0.00000   0.00000  -0.00034
  82   63399.3    157.7   0.000000110   0.00000  -0.00000  -0.00000   0.00076
  83   63502.2    157.5   0.000000000   0.00000   0.00000  -0.00000  -0.00003
  84   63564.5    157.3   0.000086129   0.00045   0.00000  -0.00000  -0.02112
  85   63784.7    156.8   0.000000206   0.00000   0.00000  -0.00001  -0.00103
  86   63855.8    156.6   0.000000000   0.00000  -0.00000  -0.00000  -0.00000
  87   63940.7    156.4   0.000000029   0.00000   0.00000  -0.00011  -0.00037
  88   63945.4    156.4   0.023572389   0.12136  -0.00001   0.34837  -0.00003
  89   64080.5    156.1   0.000000032   0.00000   0.00000  -0.00000  -0.00040
  90   64108.5    156.0   0.000000009   0.00000  -0.00000   0.00000   0.00022
  91   64275.4    155.6   0.000000000   0.00000  -0.00001   0.00002   0.00000
  92   64553.0    154.9   0.004442128   0.02265  -0.00001   0.00001   0.15051
  93   64785.2    154.4   0.000000001   0.00000   0.00001   0.00000   0.00008
  94   64883.4    154.1   0.000000002   0.00000   0.00000   0.00000   0.00010
  95   65187.2    153.4   0.000000000   0.00000  -0.00000   0.00000   0.00003
  96   65445.8    152.8   0.000000008   0.00000   0.00001  -0.00000   0.00020
  97   65505.5    152.7   0.000000000   0.00000  -0.00000   0.00000  -0.00000
  98   65516.5    152.6   0.000000023   0.00000  -0.00000   0.00000   0.00034
  99   65631.7    152.4   0.000000000   0.00000  -0.00000   0.00000   0.00005
 100   65994.0    151.5   0.000000000   0.00000   0.00000  -0.00000  -0.00000
 101   66478.7    150.4   0.000000001   0.00000  -0.00001   0.00005   0.00000
 102   66681.4    150.0   0.000000000   0.00000   0.00000   0.00000   0.00000
 103   66964.5    149.3   0.000000017   0.00000  -0.00014   0.00025   0.00000
 104   67146.2    148.9   0.000000056   0.00000  -0.00000   0.00000  -0.00052
 105   67165.1    148.9   0.000000419   0.00000  -0.00000  -0.00000  -0.00143
 106   67402.5    148.4   0.015319100   0.07482   0.27354  -0.00001   0.00002
 107   67412.4    148.3   0.000000948   0.00000   0.00002  -0.00000  -0.00215
 108   67480.9    148.2   0.048052179   0.23443   0.48418   0.00001   0.00005
 109   67572.3    148.0   0.000000001   0.00000   0.00001  -0.00000  -0.00009
 110   67718.3    147.7   0.015884392   0.07722  -0.00003   0.00003   0.27789
 111   67853.1    147.4   0.000000001   0.00000   0.00000   0.00007  -0.00000
 112   67896.6    147.3   0.158970545   0.77080   0.00001  -0.87795   0.00007
 113   68199.5    146.6   0.000000072   0.00000   0.00000   0.00001  -0.00059
 114   68437.3    146.1   0.000000077   0.00000   0.00000  -0.00000   0.00061
 115   68474.6    146.0   0.000000020   0.00000   0.00000   0.00000  -0.00031
 116   68686.5    145.6   0.038386614   0.18399   0.42894   0.00005   0.00004
 117   68912.2    145.1   0.043466628   0.20765  -0.45563  -0.00754  -0.00004
 118   68945.1    145.0   0.000012129   0.00006  -0.00000   0.00069   0.00758
 119   68946.2    145.0   0.139802783   0.66755  -0.00438   0.81702  -0.00007
 120   69035.7    144.9   0.000000011   0.00000   0.00015   0.00018  -0.00000
 121   69198.6    144.5   0.000000001   0.00000   0.00000   0.00001   0.00006
 122   69408.3    144.1   0.000000004   0.00000  -0.00000   0.00001   0.00014
 123   69574.7    143.7   0.000000004   0.00000   0.00003  -0.00014  -0.00000
 124   69656.7    143.6   0.035844404   0.16941  -0.00009  -0.41159   0.00003
 125   69810.1    143.2   0.000000001   0.00000   0.00006   0.00004  -0.00000
 126   69865.7    143.1   0.000012800   0.00006   0.00777  -0.00002  -0.00002
 127   69970.1    142.9   0.002009507   0.00945  -0.00000   0.00000   0.09724
 128   70083.3    142.7   0.000078829   0.00037  -0.00000   0.00000   0.01924
 129   70109.6    142.6   0.000000000   0.00000   0.00000  -0.00000  -0.00002
 130   70163.0    142.5   0.000000016   0.00000  -0.00000  -0.00000   0.00027
 131   70543.1    141.8   0.000000006   0.00000   0.00017   0.00001  -0.00000
 132   70589.1    141.7   0.006000837   0.02799  -0.16729   0.00020  -0.00002
 133   70689.3    141.5   0.000000010   0.00000   0.00000  -0.00000   0.00022
 134   70962.4    140.9   0.000000006   0.00000  -0.00002  -0.00010  -0.00014
 135   70963.7    140.9   0.000779943   0.00362   0.00000  -0.00001  -0.06015
 136   71201.8    140.4   0.089673193   0.41462  -0.00024  -0.64391   0.00005
 137   71289.9    140.3   0.000000000   0.00000  -0.00000   0.00000  -0.00000
 138   71328.5    140.2   0.000000001   0.00000   0.00002  -0.00003  -0.00006
 139   71339.9    140.2   0.020211381   0.09327  -0.30540   0.00003  -0.00003
 140   71436.8    140.0   0.014522065   0.06692  -0.00055   0.25870  -0.00002
 141   71715.1    139.4   0.000000000   0.00000   0.00000   0.00000  -0.00000
 142   71997.4    138.9   0.000000001   0.00000  -0.00000   0.00000  -0.00005
 143   72153.9    138.6   0.000000028   0.00000  -0.00012  -0.00034  -0.00000
 144   72162.5    138.6   0.000000017   0.00000   0.00000   0.00000   0.00028
 145   72233.4    138.4   0.000000027   0.00000   0.00000  -0.00000   0.00035
 146   72333.0    138.2   0.000000002   0.00000  -0.00009  -0.00005  -0.00000
 147   72387.1    138.1   0.000000026   0.00000   0.00000   0.00000   0.00035
 148   72414.3    138.1   0.003351001   0.01523  -0.00001   0.12343  -0.00001
 149   72526.1    137.9   0.000000564   0.00000   0.00000  -0.00001  -0.00160
 150   72534.2    137.9   0.000000252   0.00000  -0.00000  -0.00000  -0.00107
 151   72600.1    137.7   0.000000054   0.00000  -0.00045  -0.00020   0.00000
 152   72643.0    137.7   0.000000120   0.00000  -0.00000  -0.00001  -0.00074
 153   72862.5    137.2   0.000008451   0.00004   0.00000  -0.00000  -0.00618
 154   72885.7    137.2   0.000000003   0.00000   0.00000  -0.00000  -0.00012
 155   73014.0    137.0   0.000000345   0.00000   0.00119   0.00038  -0.00000
 156   73061.0    136.9   0.011316131   0.05099  -0.22581  -0.00004  -0.00002
 157   73099.1    136.8   0.000002442   0.00001   0.00000   0.00000   0.00332
 158   73277.4    136.5   0.002006275   0.00901   0.00001  -0.00001  -0.09494
 159   73406.4    136.2   0.000000235   0.00000   0.00001  -0.00000  -0.00103
 160   73436.4    136.2   0.000000284   0.00000   0.00000  -0.00000   0.00113
 161   73476.3    136.1   0.000000000   0.00000  -0.00000   0.00000   0.00000
 162   73700.3    135.7   0.029542408   0.13196   0.36327  -0.00002   0.00003
 163   73703.3    135.7   0.000001011   0.00000   0.00048   0.00000   0.00207
 164   73813.1    135.5   0.000000006   0.00000   0.00001   0.00000   0.00016
 165   73965.0    135.2   0.000000069   0.00000   0.00021   0.00051  -0.00000
 166   73997.8    135.1   0.023875467   0.10622   0.00003  -0.00002  -0.32591
 167   74219.7    134.7   0.000000038   0.00000  -0.00038  -0.00016   0.00000
 168   74345.1    134.5   0.000000015   0.00000  -0.00002   0.00026  -0.00000
 169   74346.8    134.5   0.000000014   0.00000   0.00000   0.00000   0.00025
 170   74347.2    134.5   0.000000031   0.00000   0.00001  -0.00000  -0.00037
 171   74494.0    134.2   0.000000001   0.00000  -0.00003   0.00002  -0.00006
 172   74499.8    134.2   0.001623246   0.00717   0.00001  -0.00000  -0.08469
 173   74504.3    134.2   0.000676527   0.00299   0.00000  -0.00000  -0.05468
 174   74641.8    134.0   0.000000060   0.00000   0.00048   0.00017  -0.00007
 175   74644.6    134.0   0.001445785   0.00638  -0.00001   0.00001   0.07985
 176   74744.3    133.8   0.000003852   0.00002   0.00000  -0.00000   0.00412
 177   74931.4    133.5   0.000000060   0.00000  -0.00051  -0.00005   0.00000
 178   75000.6    133.3   0.000000010   0.00000   0.00000   0.00000  -0.00021
 179   75083.7    133.2   0.000000016   0.00000   0.00008   0.00025   0.00000
 180   75622.3    132.2   0.000000013   0.00000  -0.00000   0.00000  -0.00024
 181   75648.1    132.2   0.000000715   0.00000  -0.00000  -0.00000   0.00176
 182   75669.4    132.2   0.000003335   0.00001  -0.00001   0.00000   0.00381
 183   76063.6    131.5   0.000000001   0.00000  -0.00002  -0.00005   0.00000
 184   76114.0    131.4   0.000171224   0.00074   0.00000  -0.00000  -0.02721
 185   76117.5    131.4   0.000000014   0.00000   0.00000  -0.00000  -0.00025
 186   76236.7    131.2   0.000000013   0.00000  -0.00014   0.00019  -0.00000
 187   76318.1    131.0   0.000000281   0.00000   0.00000   0.00000  -0.00110
 188   76372.1    130.9   0.000000000   0.00000   0.00000  -0.00000   0.00000
 189   76490.6    130.7   0.000000807   0.00000  -0.00160  -0.00096   0.00001
 190   76496.6    130.7   0.000000004   0.00000  -0.00001   0.00001   0.00012
 191   76549.8    130.6   0.000000020   0.00000  -0.00001  -0.00000  -0.00029
 192   76551.8    130.6   0.000000041   0.00000   0.00000  -0.00001   0.00042
 193   76581.6    130.6   0.013560934   0.05830  -0.00186   0.24144  -0.00002
 194   76668.6    130.4   0.036811955   0.15807  -0.39755  -0.00509  -0.00004
 195   76822.3    130.2   0.004475984   0.01918   0.00002  -0.00010  -0.13850
 196   76844.5    130.1   0.196752607   0.84291   0.00814   0.91807  -0.00009

Dispersion correction           -0.063864563
FINAL SINGLE POINT ENERGY      -615.451628894802

DIPOLE MOMENT
-------------
                                X             Y             Z
Electronic contribution:     -0.00000      -0.00000      -0.00001
Nuclear contribution   :     -0.00000      -0.00000       0.00002
                        -----------------------------------------
Total Dipole Moment    :     -0.00000      -0.00000       0.00000
                        -----------------------------------------
Magnitude (a.u.)       :      0.00000
Magnitude (Debye)      :      0.00001

Rotational constants in cm-1:     0.033777     0.018567     0.011981
Rotational constants in MHz :  1012.598324   556.621828   359.181170

                             ****ORCA TERMINATED NORMALLY****
TOTAL RUN TIME: 0 days 2 hours 46 minutes 4 seconds 293 msec
