                         Program Version 5.0.4 -  RELEASE  -
|  1> !B3LYP 6-311+G**  D4
|  2>
|  3> %maxcore 5000
|  4> %pal
|  5> nprocs 7
|  6> end
|  7>
|  8> %TDDFT
|  9>   NROOTS 1000
| 10>   END
| 11>
| 12> %scf
| 13> stabperform true
| 14> STABDTol 1e-5
| 15> STABRTol 1e-5
| 16> end
| 17>
| 18> * XYZ 0 1
| 19>   C   -2.83355758761386      1.23705084807756     -0.11891659673672
| 20>   C   -3.52414324030020      0.04442625329522     -0.07368102813139
| 21>   C   -2.82818575027012     -1.17035194238375      0.05046530952019
| 22>   C   -1.44631720718305     -1.19725403360002      0.09741595755195
| 23>   C   -0.67780154773847     -2.47108349928665      0.35690444262614
| 24>   C   0.67777208028048     -2.47220146495701     -0.35162715380004
| 25>   C   1.44652833096577     -1.19779163950243     -0.09573562629152
| 26>   C   2.82840254610333     -1.17101089464034     -0.04891745756119
| 27>   C   3.52458329335767      0.04398578425252      0.07182052186565
| 28>   C   2.83421883275774      1.23685699025838      0.11383322029086
| 29>   C   1.42389353555382      1.24932311878913      0.06673513663801
| 30>   C   0.67821439638247      2.47376669903775      0.04388909847282
| 31>   C   -0.67733644323106      2.47375962901361     -0.05218710011601
| 32>   C   -1.42323259421414      1.24939030043663     -0.07177862933284
| 33>   C   -0.72271806846865      0.01617233363098     -0.00480315007648
| 34>   C   0.72315672753166      0.01605102025406      0.00313821201661
| 35>   H   -3.36773321986638      2.18037233537766     -0.18235312123950
| 36>   H   -4.60863365079338      0.04075725559853     -0.11451115116448
| 37>   H   -3.38313005304366     -2.10115757843777      0.12638507852772
| 38>   H   -0.51388496276560     -2.55976142249784      1.43989930544548
| 39>   H   -1.26844937360401     -3.34185586443297      0.05921857439455
| 40>   H   1.26826211637949     -3.34224065514963     -0.05149743772789
| 41>   H   0.51382195905843     -2.56389902314126     -1.43436722977047
| 42>   H   3.38317790537867     -2.10212215910525     -0.12228178375356
| 43>   H   4.60907525469114      0.04023188904050      0.11259743107378
| 44>   H   3.36857296482775      2.18024921295713      0.17466151302885
| 45>   H   1.22502263811764      3.41132682144681      0.08258682382158
| 46>   H   -1.22397888229349      3.41130968566843     -0.09339315957209
| 47> **                         ****END OF INPUT****

CARTESIAN COORDINATES (ANGSTROEM)
---------------------------------
  C     -2.833558    1.237051   -0.118917
  C     -3.524143    0.044426   -0.073681
  C     -2.828186   -1.170352    0.050465
  C     -1.446317   -1.197254    0.097416
  C     -0.677802   -2.471083    0.356904
  C      0.677772   -2.472201   -0.351627
  C      1.446528   -1.197792   -0.095736
  C      2.828403   -1.171011   -0.048917
  C      3.524583    0.043986    0.071821
  C      2.834219    1.236857    0.113833
  C      1.423894    1.249323    0.066735
  C      0.678214    2.473767    0.043889
  C     -0.677336    2.473760   -0.052187
  C     -1.423233    1.249390   -0.071779
  C     -0.722718    0.016172   -0.004803
  C      0.723157    0.016051    0.003138
  H     -3.367733    2.180372   -0.182353
  H     -4.608634    0.040757   -0.114511
  H     -3.383130   -2.101158    0.126385
  H     -0.513885   -2.559761    1.439899
  H     -1.268449   -3.341856    0.059219
  H      1.268262   -3.342241   -0.051497
  H      0.513822   -2.563899   -1.434367
  H      3.383178   -2.102122   -0.122282
  H      4.609075    0.040232    0.112597
  H      3.368573    2.180249    0.174662
  H      1.225023    3.411327    0.082587
  H     -1.223979    3.411310   -0.093393

 Total Charge           Charge          ....    0
 Multiplicity           Mult            ....    1
 Number of Electrons    NEL             ....  108
 Basis Dimension        Dim             ....  424

ORBITAL ENERGIES
----------------

  NO   OCC          E(Eh)            E(eV)
   0   2.0000     -10.182959      -277.0924
   1   2.0000     -10.182955      -277.0923
   2   2.0000     -10.182010      -277.0666
   3   2.0000     -10.181947      -277.0649
   4   2.0000     -10.181522      -277.0533
   5   2.0000     -10.181216      -277.0450
   6   2.0000     -10.175587      -276.8918
   7   2.0000     -10.175286      -276.8836
   8   2.0000     -10.175059      -276.8774
   9   2.0000     -10.174881      -276.8726
  10   2.0000     -10.173753      -276.8419
  11   2.0000     -10.173751      -276.8418
  12   2.0000     -10.172179      -276.7991
  13   2.0000     -10.172178      -276.7990
  14   2.0000     -10.171288      -276.7748
  15   2.0000     -10.171286      -276.7748
  16   2.0000      -0.891576       -24.2610
  17   2.0000      -0.852193       -23.1893
  18   2.0000      -0.828090       -22.5335
  19   2.0000      -0.795965       -21.6593
  20   2.0000      -0.765834       -20.8394
  21   2.0000      -0.749031       -20.3822
  22   2.0000      -0.730784       -19.8857
  23   2.0000      -0.709599       -19.3092
  24   2.0000      -0.638602       -17.3772
  25   2.0000      -0.626560       -17.0496
  26   2.0000      -0.626008       -17.0345
  27   2.0000      -0.607022       -16.5179
  28   2.0000      -0.555720       -15.1219
  29   2.0000      -0.527323       -14.3492
  30   2.0000      -0.522315       -14.2129
  31   2.0000      -0.498408       -13.5624
  32   2.0000      -0.481772       -13.1097
  33   2.0000      -0.477746       -13.0001
  34   2.0000      -0.461445       -12.5566
  35   2.0000      -0.434113       -11.8128
  36   2.0000      -0.432107       -11.7582
  37   2.0000      -0.426309       -11.6005
  38   2.0000      -0.412210       -11.2168
  39   2.0000      -0.404238       -10.9999
  40   2.0000      -0.395345       -10.7579
  41   2.0000      -0.390673       -10.6307
  42   2.0000      -0.386764       -10.5244
  43   2.0000      -0.381181       -10.3725
  44   2.0000      -0.365249        -9.9389
  45   2.0000      -0.355914        -9.6849
  46   2.0000      -0.346129        -9.4186
  47   2.0000      -0.322156        -8.7663
  48   2.0000      -0.321200        -8.7403
  49   2.0000      -0.311074        -8.4648
  50   2.0000      -0.283947        -7.7266
  51   2.0000      -0.260036        -7.0759
  52   2.0000      -0.222196        -6.0463
  53   2.0000      -0.215925        -5.8756
  54   0.0000      -0.046246        -1.2584
  55   0.0000      -0.038940        -1.0596
  56   0.0000      -0.007565        -0.2059
  57   0.0000       0.001497         0.0407
  58   0.0000       0.011051         0.3007

MULLIKEN ATOMIC CHARGES
-----------------------
   0 C :   -0.387012
   1 C :    0.021364
   2 C :   -0.785204
   3 C :    1.020188
   4 C :   -0.181561
   5 C :   -0.189351
   6 C :    1.002508
   7 C :   -0.757690
   8 C :    0.008566
   9 C :   -0.359307
  10 C :    1.364135
  11 C :   -0.250246
  12 C :   -0.230633
  13 C :    1.380534
  14 C :   -1.627641
  15 C :   -1.619325
  16 H :    0.121455
  17 H :    0.122931
  18 H :    0.117003
  19 H :    0.173859
  20 H :    0.138487
  21 H :    0.138498
  22 H :    0.173896
  23 H :    0.116868
  24 H :    0.122969
  25 H :    0.121271
  26 H :    0.121740
  27 H :    0.121699
Sum of atomic charges:   -0.0000000

LOEWDIN ATOMIC CHARGES
----------------------
   0 C :   -0.051141
   1 C :   -0.054663
   2 C :   -0.062572
   3 C :   -0.075872
   4 C :   -0.069719
   5 C :   -0.069723
   6 C :   -0.075872
   7 C :   -0.062569
   8 C :   -0.054665
   9 C :   -0.051135
  10 C :   -0.069459
  11 C :   -0.039059
  12 C :   -0.039058
  13 C :   -0.069456
  14 C :   -0.050518
  15 C :   -0.050519
  16 H :    0.078673
  17 H :    0.073092
  18 H :    0.078153
  19 H :    0.090343
  20 H :    0.072690
  21 H :    0.072690
  22 H :    0.090344
  23 H :    0.078154
  24 H :    0.073093
  25 H :    0.078674
  26 H :    0.080047
  27 H :    0.080048

  Mayer bond orders larger than 0.100000
B(  0-C ,  1-C ) :   1.2617 B(  0-C ,  2-C ) :   0.5990 B(  0-C ,  3-C ) :  -0.3865
B(  0-C ,  4-C ) :  -0.2450 B(  0-C , 10-C ) :   0.1396 B(  0-C , 12-C ) :  -1.0982
B(  0-C , 13-C ) :  -0.1678 B(  0-C , 14-C ) :   1.0019 B(  0-C , 15-C ) :   0.3632
B(  0-C , 16-H ) :   1.2294 B(  0-C , 17-H ) :   0.1439 B(  0-C , 27-H ) :  -0.1497
B(  1-C ,  2-C ) :   1.0364 B(  1-C , 14-C ) :   0.3227 B(  1-C , 17-H ) :   0.8362
B(  2-C ,  3-C ) :   0.2512 B(  2-C ,  4-C ) :  -0.3557 B(  2-C ,  5-C ) :  -0.1236
B(  2-C ,  7-C ) :   0.2152 B(  2-C , 10-C ) :   0.1833 B(  2-C , 13-C ) :   0.3288
B(  2-C , 14-C ) :   0.5829 B(  2-C , 15-C ) :  -0.8402 B(  2-C , 17-H ) :   0.1766
B(  2-C , 18-H ) :   1.2867 B(  2-C , 19-H ) :   0.1170 B(  3-C ,  4-C ) :   0.7525
B(  3-C ,  5-C ) :  -0.7183 B(  3-C ,  6-C ) :   0.1342 B(  3-C , 10-C ) :  -0.1976
B(  3-C , 12-C ) :   0.4251 B(  3-C , 13-C ) :   0.1428 B(  3-C , 14-C ) :   2.0766
B(  3-C , 15-C ) :  -1.3177 B(  3-C , 16-H ) :  -0.1391 B(  3-C , 17-H ) :  -0.2138
B(  3-C , 18-H ) :  -0.6299 B(  3-C , 19-H ) :   0.3778 B(  3-C , 20-H ) :  -0.2216
B(  4-C ,  5-C ) :   1.1765 B(  4-C ,  6-C ) :  -0.7139 B(  4-C ,  7-C ) :  -0.1269
B(  4-C , 12-C ) :   0.1087 B(  4-C , 15-C ) :   0.9955 B(  4-C , 18-H ) :  -0.1935
B(  4-C , 19-H ) :   0.9312 B(  4-C , 20-H ) :   0.9614 B(  4-C , 22-H ) :  -0.1255
B(  5-C ,  6-C ) :   0.7375 B(  5-C ,  7-C ) :  -0.3440 B(  5-C ,  9-C ) :  -0.2310
B(  5-C , 11-C ) :   0.1023 B(  5-C , 14-C ) :   1.0109 B(  5-C , 19-H ) :  -0.1222
B(  5-C , 21-H ) :   0.9617 B(  5-C , 22-H ) :   0.9341 B(  5-C , 23-H ) :  -0.1896
B(  6-C ,  7-C ) :   0.3057 B(  6-C ,  9-C ) :  -0.3337 B(  6-C , 10-C ) :   0.1072
B(  6-C , 11-C ) :   0.4088 B(  6-C , 13-C ) :  -0.1932 B(  6-C , 14-C ) :  -1.2344
B(  6-C , 15-C ) :   2.0111 B(  6-C , 21-H ) :  -0.2226 B(  6-C , 22-H ) :   0.3842
B(  6-C , 23-H ) :  -0.6102 B(  6-C , 24-H ) :  -0.2050 B(  6-C , 25-H ) :  -0.1338
B(  7-C ,  8-C ) :   1.0474 B(  7-C ,  9-C ) :   0.5597 B(  7-C , 10-C ) :   0.3569
B(  7-C , 13-C ) :   0.1832 B(  7-C , 14-C ) :  -0.8403 B(  7-C , 15-C ) :   0.5441
B(  7-C , 22-H ) :   0.1154 B(  7-C , 23-H ) :   1.2701 B(  7-C , 24-H ) :   0.1693
B(  8-C ,  9-C ) :   1.2718 B(  8-C , 15-C ) :   0.3343 B(  8-C , 24-H ) :   0.8419
B(  9-C , 10-C ) :  -0.1167 B(  9-C , 11-C ) :  -1.0804 B(  9-C , 13-C ) :   0.1372
B(  9-C , 14-C ) :   0.3226 B(  9-C , 15-C ) :   0.9977 B(  9-C , 24-H ) :   0.1357
B(  9-C , 25-H ) :   1.2132 B(  9-C , 26-H ) :  -0.1505 B( 10-C , 11-C ) :  -0.3349
B( 10-C , 12-C ) :   0.4159 B( 10-C , 13-C ) :  -0.1015 B( 10-C , 14-C ) :   0.4786
B( 10-C , 15-C ) :   1.7718 B( 10-C , 22-H ) :  -0.1320 B( 10-C , 23-H ) :  -0.2188
B( 10-C , 24-H ) :  -0.2188 B( 10-C , 25-H ) :  -0.4973 B( 10-C , 26-H ) :  -0.3854
B( 11-C , 12-C ) :   0.5219 B( 11-C , 13-C ) :   0.4249 B( 11-C , 14-C ) :  -1.0612
B( 11-C , 15-C ) :   2.3023 B( 11-C , 25-H ) :  -0.2154 B( 11-C , 26-H ) :   1.2218
B( 12-C , 13-C ) :  -0.3302 B( 12-C , 14-C ) :   2.3072 B( 12-C , 15-C ) :  -1.0621
B( 12-C , 16-H ) :  -0.2242 B( 12-C , 27-H ) :   1.2194 B( 13-C , 14-C ) :   1.7654
B( 13-C , 15-C ) :   0.4571 B( 13-C , 16-H ) :  -0.5093 B( 13-C , 17-H ) :  -0.2279
B( 13-C , 18-H ) :  -0.2240 B( 13-C , 19-H ) :  -0.1323 B( 13-C , 27-H ) :  -0.3832
B( 14-C , 15-C ) :   0.2962 B( 14-C , 16-H ) :   0.5347 B( 14-C , 17-H ) :   0.2586
B( 14-C , 18-H ) :   0.5314 B( 14-C , 19-H ) :  -0.2513 B( 14-C , 20-H ) :   0.1012
B( 14-C , 21-H ) :   0.1369 B( 14-C , 23-H ) :   0.1862 B( 14-C , 26-H ) :  -0.1255
B( 14-C , 27-H ) :   0.3898 B( 15-C , 18-H ) :   0.1880 B( 15-C , 20-H ) :   0.1360
B( 15-C , 21-H ) :   0.1018 B( 15-C , 22-H ) :  -0.2415 B( 15-C , 23-H ) :   0.5197
B( 15-C , 24-H ) :   0.2499 B( 15-C , 25-H ) :   0.5283 B( 15-C , 26-H ) :   0.3927
B( 15-C , 27-H ) :  -0.1238

-----------------------------------------------------------------------------
         ABSORPTION SPECTRUM VIA TRANSITION ELECTRIC DIPOLE MOMENTS
-----------------------------------------------------------------------------
State   Energy    Wavelength  fosc         T2        TX        TY        TZ
        (cm-1)      (nm)                 (au**2)    (au)      (au)      (au)
-----------------------------------------------------------------------------
   1   31451.7    317.9   0.000012473   0.00013   0.00001  -0.01143   0.00002
   2   34161.9    292.7   0.047847621   0.46110  -0.67769   0.00002  -0.04277
   3   38629.9    258.9   0.158743331   1.35284   0.00014   1.16312  -0.00159
   4   39460.4    253.4   0.574821398   4.79565  -2.18899   0.00028   0.06311
   5   39995.4    250.0   0.001266376   0.01042  -0.00021   0.10210  -0.00014
   6   40192.5    248.8   0.003570197   0.02924  -0.16363   0.00006   0.04968
   7   42445.4    235.6   0.001540114   0.01195   0.01513  -0.00000   0.10824
   8   43727.7    228.7   0.002214720   0.01667  -0.00020  -0.12913   0.00033
   9   44330.6    225.6   0.000534459   0.00397  -0.06291   0.00037   0.00343
  10   45053.8    222.0   0.000047062   0.00034  -0.00070   0.01853  -0.00028
  11   45581.3    219.4   0.022860066   0.16511   0.40633   0.00011  -0.00115
  12   46179.5    216.5   0.005471302   0.03900   0.00091   0.19729  -0.00907
  13   46274.5    216.1   0.013122249   0.09336   0.01056  -0.00823  -0.30525
  14   46939.3    213.0   0.124652943   0.87426  -0.00193   0.93502  -0.00202
  15   47439.0    210.8   0.680506908   4.72251   2.17275   0.00095   0.04082
  16   47642.2    209.9   0.032860969   0.22707   0.00276   0.47651  -0.00047
  17   48268.9    207.2   0.251556485   1.71571   1.30899  -0.00168   0.04736
  18   48839.7    204.8   0.000703604   0.00474   0.00008   0.06887  -0.00019
  19   49479.7    202.1   0.005615755   0.03736  -0.00049  -0.19329   0.00143
  20   49934.1    200.3   0.061657071   0.40650   0.62436   0.00029   0.12916
  21   50169.4    199.3   0.000929964   0.00610   0.00646  -0.07784   0.00099
  22   50215.1    199.1   0.009939273   0.06516   0.25488   0.00086   0.01415
  23   50822.6    196.8   0.006426569   0.04163  -0.18634  -0.00075  -0.08310
  24   51386.2    194.6   0.061125815   0.39161  -0.58940  -0.00674   0.21018
  25   51405.8    194.5   0.003922432   0.02512   0.03170  -0.15494  -0.01036
  26   51563.2    193.9   0.054999627   0.35115   0.57303   0.00069   0.15096
  27   51839.1    192.9   0.302999698   1.92424   1.36731   0.00113   0.23387
  28   52076.0    192.0   0.011201006   0.07081  -0.00160   0.26610  -0.00071
  29   52399.3    190.8   0.000796960   0.00501  -0.00029  -0.07076   0.00013
  30   52477.3    190.6   0.000304025   0.00191  -0.00007   0.04367  -0.00006
  31   53060.2    188.5   0.003177282   0.01971   0.00112  -0.14040   0.00013
  32   53193.4    188.0   0.017213957   0.10654   0.18598  -0.00036  -0.26823
  33   53431.7    187.2   0.003904521   0.02406   0.00057   0.15510   0.00002
  34   53506.3    186.9   0.040772379   0.25086  -0.49316   0.00027  -0.08747
  35   54100.5    184.8   0.014741334   0.08970   0.25965  -0.00044  -0.14928
  36   54410.6    183.8   0.006175193   0.03736  -0.15480  -0.00144  -0.11575
  37   54502.0    183.5   0.026999494   0.16309  -0.00062  -0.40384   0.00069
  38   54791.1    182.5   0.014667637   0.08813   0.00474   0.29683  -0.00008
  39   54920.6    182.1   0.049958471   0.29947  -0.02608   0.54661  -0.00147
  40   54927.7    182.1   0.007830600   0.04693   0.20801   0.06045   0.00319
  41   55771.1    179.3   0.077654697   0.45839  -0.00016   0.67704  -0.00090
  42   56196.3    177.9   0.012201661   0.07148   0.00035   0.26736  -0.00043
  43   56790.6    176.1   0.007340038   0.04255   0.20381  -0.00077  -0.03181
  44   57191.2    174.9   0.005612537   0.03231  -0.13338  -0.00122  -0.12048
  45   57421.3    174.2   0.019444349   0.11148  -0.00048  -0.33388   0.00091
  46   57834.7    172.9   0.013838599   0.07877   0.00248   0.28065   0.00100
  47   57992.8    172.4   0.030106457   0.17091   0.29171   0.00245   0.29293
  48   58034.6    172.3   0.057623663   0.32688   0.00163  -0.57172   0.00406
  49   58438.6    171.1   0.038675823   0.21788  -0.46611   0.00293   0.02481
  50   58530.6    170.9   0.004361799   0.02453  -0.12797  -0.01654  -0.08879
  51   58726.2    170.3   0.004645506   0.02604  -0.15428  -0.00101   0.04731
  52   58756.5    170.2   0.006079787   0.03406  -0.00011   0.18457  -0.00052
  53   59061.7    169.3   0.037225648   0.20750   0.44373   0.03442  -0.09702
  54   59128.0    169.1   0.514200450   2.86296   0.01146  -1.69199  -0.00113
  55   59250.2    168.8   0.001468852   0.00816   0.04218   0.01427  -0.07861
  56   59487.1    168.1   0.027116421   0.15007  -0.00026  -0.38737   0.00342
  57   59861.6    167.1   0.004814449   0.02648  -0.00224   0.16270   0.00128
  58   59989.1    166.7   0.063394128   0.34790  -0.52177   0.05533   0.26943
  59   60002.3    166.7   0.084609058   0.46422   0.04781   0.67914  -0.02646
  60   60147.4    166.3   0.007502494   0.04106  -0.00218   0.20261   0.00268
  61   60194.2    166.1   0.000221354   0.00121  -0.02760  -0.00197  -0.02110
  62   60299.8    165.8   0.005773782   0.03152  -0.15702  -0.01914  -0.08062
  63   60359.9    165.7   0.105051055   0.57296   0.00526  -0.75692   0.00262
  64   60527.6    165.2   0.001887600   0.01027   0.05976   0.00546   0.08164
  65   60901.8    164.2   0.002065335   0.01116   0.00112  -0.10566  -0.00034
  66   60987.9    164.0   0.000009105   0.00005   0.00347  -0.00609  -0.00030
  67   61155.5    163.5   0.213091126   1.14711   0.00005  -1.07103   0.00162
  68   61513.8    162.6   0.065802608   0.35216   0.00033   0.59343  -0.00070
  69   62061.1    161.1   0.020361107   0.10801   0.32608   0.02772   0.03014
  70   62073.7    161.1   0.059577524   0.31597  -0.01666   0.56186  -0.00252
  71   62293.6    160.5   0.054614748   0.28863   0.53596   0.00125   0.03706
  72   62727.6    159.4   0.035022169   0.18381   0.00068   0.42873  -0.00066
  73   62875.5    159.0   0.001268574   0.00664   0.00228  -0.00182  -0.08145
  74   62971.6    158.8   0.000252795   0.00132   0.02788   0.00134  -0.02329
  75   63088.7    158.5   0.004854254   0.02533  -0.00125   0.15914  -0.00194
  76   63107.5    158.5   0.004097833   0.02138   0.08988   0.00058   0.11532
  77   63165.6    158.3   0.002229172   0.01162   0.00057   0.10778   0.00055
  78   63189.5    158.3   0.007256727   0.03781   0.00010   0.19444  -0.00037
  79   63495.7    157.5   0.019342627   0.10029  -0.30984   0.00135   0.06544
  80   63927.8    156.4   0.000197944   0.00102  -0.00020  -0.03193   0.00005
  81   64310.5    155.5   0.010972190   0.05617  -0.23699   0.00090   0.00087
  82   64495.8    155.0   0.024671788   0.12593  -0.33479   0.00030  -0.11770
  83   65035.8    153.8   0.000736457   0.00373  -0.02449   0.00418  -0.05577
  84   65065.1    153.7   0.009202289   0.04656   0.00012   0.21578   0.00086
  85   65191.8    153.4   0.002156152   0.01089   0.10220  -0.00998  -0.01853
  86   65207.3    153.4   0.011922158   0.06019  -0.00459  -0.24530   0.00044
  87   65441.9    152.8   0.000010986   0.00006   0.00230   0.00707   0.00005
  88   65714.3    152.2   0.043043570   0.21564  -0.46419   0.00099   0.01277
  89   65867.2    151.8   0.006179518   0.03089   0.16004   0.00108  -0.07260
  90   65944.7    151.6   0.000256856   0.00128   0.00090   0.03580  -0.00009
  91   66182.7    151.1   0.001204695   0.00599  -0.00246  -0.07737  -0.00060
  92   66273.7    150.9   0.011538605   0.05732  -0.01309  -0.23876   0.01177
  93   66279.4    150.9   0.010852439   0.05390   0.18632  -0.01922  -0.13719
  94   66387.6    150.6   0.001330258   0.00660   0.06376   0.00011  -0.05031
  95   66719.4    149.9   0.017604140   0.08686   0.00039  -0.29473   0.00025
  96   66805.6    149.7   0.004665490   0.02299   0.01162   0.00037  -0.15118
  97   66909.7    149.5   0.012001633   0.05905   0.24039   0.00476   0.03520
  98   67175.8    148.9   0.019410880   0.09513  -0.00054  -0.30841   0.00335
  99   67299.6    148.6   0.005347737   0.02616   0.14519  -0.00243  -0.07123
 100   67464.0    148.2   0.008768353   0.04279   0.00142  -0.20680   0.00463
 101   67525.9    148.1   0.008870301   0.04325  -0.01812  -0.01086  -0.20688
 102   67672.7    147.8   0.006760444   0.03289  -0.18128   0.00166  -0.00478
 103   67786.4    147.5   0.005235049   0.02542   0.03770   0.03421  -0.15111
 104   67796.3    147.5   0.081894923   0.39767   0.00125  -0.63058  -0.00662
 105   68148.8    146.7   0.017445688   0.08428   0.00008  -0.29030   0.00039
 106   68180.8    146.7   0.001365834   0.00659  -0.03940   0.00207  -0.07098
 107   68270.9    146.5   0.009001152   0.04340   0.17625   0.00334  -0.11104
 108   68331.8    146.3   0.001715871   0.00827  -0.08512   0.00414  -0.03168
 109   68418.5    146.2   0.013277795   0.06389  -0.01144   0.25084  -0.02897
 110   68423.1    146.1   0.004030335   0.01939   0.02691   0.12037   0.06464
 111   68500.5    146.0   0.002654724   0.01276   0.00146   0.11292  -0.00224
 112   68593.7    145.8   0.030667859   0.14719   0.00006   0.38365  -0.00058
 113   68743.2    145.5   0.031571913   0.15120  -0.00008   0.38884  -0.00070
 114   68820.2    145.3   0.007599380   0.03635   0.01350  -0.19016  -0.00298
 115   68844.5    145.3   0.008806701   0.04211  -0.19786  -0.00781   0.05390
 116   68972.6    145.0   0.004295060   0.02050  -0.00145   0.14317   0.00002
 117   69075.9    144.8   0.028277250   0.13477  -0.31009   0.00013  -0.19651
 118   69296.3    144.3   0.001503549   0.00714  -0.00497  -0.08434  -0.00223
 119   69335.1    144.2   0.007411097   0.03519   0.18315   0.00169   0.04051
 120   69651.3    143.6   0.046092744   0.21786  -0.46242  -0.00015   0.06345
 121   69692.1    143.5   0.040357444   0.19064  -0.43355   0.00024   0.05170
 122   69768.9    143.3   0.000800614   0.00378   0.03435  -0.05085   0.00353
 123   69818.8    143.2   0.084835724   0.40002   0.62939   0.00374   0.06220
 124   69985.7    142.9   0.000218617   0.00103   0.00938  -0.03065   0.00080
 125   70342.9    142.2   0.052940634   0.24777  -0.49774   0.00030  -0.00482
 126   70440.4    142.0   0.009184986   0.04293  -0.17788   0.00054  -0.10623
 127   70572.9    141.7   0.000057433   0.00027  -0.00825   0.01366  -0.00365
 128   70733.3    141.4   0.000101860   0.00047  -0.00025   0.02177   0.00032
 129   70857.2    141.1   0.003549510   0.01649  -0.00109   0.12841  -0.00089
 130   70966.1    140.9   0.003652371   0.01694  -0.07377   0.00389  -0.10718
 131   71072.5    140.7   0.005318438   0.02464   0.00256  -0.15647  -0.01209
 132   71154.9    140.5   0.004438653   0.02054   0.03069   0.01635  -0.13902
 133   71271.4    140.3   0.000387888   0.00179   0.03333  -0.01442   0.02174
 134   71308.1    140.2   0.006935866   0.03202  -0.17280  -0.01900  -0.04244
 135   71336.9    140.2   0.005824025   0.02688  -0.06541   0.00409  -0.15027
 136   71382.4    140.1   0.001646334   0.00759   0.05754  -0.06492  -0.00816
 137   71429.0    140.0   0.001067646   0.00492  -0.06223  -0.03207   0.00443
 138   71600.3    139.7   0.005927706   0.02726  -0.00636   0.16492  -0.00413
 139   71792.0    139.3   0.004149090   0.01903   0.04984   0.09729   0.08412
 140   71803.8    139.3   0.010541367   0.04833  -0.01753   0.21522  -0.04128
 141   71913.7    139.1   0.005285610   0.02420  -0.15178  -0.00132  -0.03404
 142   72073.3    138.7   0.027027640   0.12346   0.01625  -0.35096  -0.00437
 143   72155.9    138.6   0.016095177   0.07343   0.27067   0.01243   0.00450
 144   72218.7    138.5   0.002942857   0.01342   0.00093  -0.11536   0.01027
 145   72241.4    138.4   0.005505652   0.02509  -0.15486   0.02059   0.02615
 146   72525.5    137.9   0.013687751   0.06213   0.18205   0.07573   0.15250
 147   72638.8    137.7   0.014687865   0.06657   0.05453  -0.24933   0.03783
 148   72818.4    137.3   0.003078872   0.01392   0.02270   0.11519  -0.01162
 149   72896.4    137.2   0.003061143   0.01382  -0.11242   0.00802   0.03351
 150   72929.5    137.1   0.006205973   0.02801   0.16589   0.02136   0.00608
 151   72998.7    137.0   0.002677008   0.01207  -0.03967   0.10225  -0.00661
 152   73086.8    136.8   0.004647491   0.02093  -0.01499   0.14389   0.00228
 153   73161.1    136.7   0.007532644   0.03390  -0.04267  -0.17909  -0.00184
 154   73264.8    136.5   0.002564450   0.01152   0.09087  -0.00157   0.05713
 155   73336.6    136.4   0.019296625   0.08662   0.29413   0.00708   0.00773
 156   73452.1    136.1   0.000684192   0.00307  -0.00782   0.05481   0.00116
 157   73609.9    135.9   0.029011812   0.12975  -0.01478  -0.35988  -0.00442
 158   73738.9    135.6   0.008323714   0.03716   0.17868  -0.02899  -0.06629
 159   73863.8    135.4   0.002518978   0.01123  -0.07746   0.05442  -0.04760
 160   73876.9    135.4   0.002415597   0.01076   0.01581  -0.00067   0.10254
 161   73960.5    135.2   0.039143236   0.17423  -0.39333   0.11375  -0.08117
 162   73997.4    135.1   0.019713112   0.08770  -0.14908  -0.25456  -0.02604
 163   74132.6    134.9   0.004811371   0.02137   0.06543   0.13067   0.00340
 164   74196.1    134.8   0.020671691   0.09172   0.28701  -0.00008   0.09668
 165   74257.6    134.7   0.009748197   0.04322  -0.00793   0.20771   0.00322
 166   74318.0    134.6   0.020047526   0.08881  -0.28323   0.00427  -0.09258
 167   74478.9    134.3   0.018086383   0.07995  -0.00943   0.00544  -0.28254
 168   74506.5    134.2   0.001668662   0.00737   0.00120  -0.08379  -0.01875
 169   74663.4    133.9   0.015779473   0.06958   0.00300   0.26375   0.00231
 170   74778.7    133.7   0.000752651   0.00331   0.00520   0.05722  -0.00358
 171   75101.2    133.2   0.005566876   0.02440  -0.00906  -0.15594  -0.00219
 172   75180.7    133.0   0.013505509   0.05914   0.24166   0.00075   0.02721
 173   75475.6    132.5   0.003911409   0.01706  -0.00234  -0.13053  -0.00411
 174   75488.8    132.5   0.002299292   0.01003   0.06764  -0.00927   0.07325
 175   75622.1    132.2   0.009279734   0.04040  -0.18225  -0.00281   0.08471
 176   75682.5    132.1   0.000015223   0.00007   0.00180   0.00789   0.00082
 177   75752.3    132.0   0.006384865   0.02775   0.06775   0.00123   0.15217
 178   75898.0    131.8   0.000118827   0.00052  -0.02138  -0.00453   0.00614
 179   75963.5    131.6   0.003096343   0.01342   0.10934  -0.00513  -0.03791
 180   76122.7    131.4   0.082348424   0.35614   0.00172  -0.59677   0.00168
 181   76198.8    131.2   0.000209190   0.00090  -0.02833   0.00298   0.00961
 182   76294.7    131.1   0.000557002   0.00240   0.00146   0.04900  -0.00004
 183   76318.6    131.0   0.007803241   0.03366   0.01561   0.18280  -0.00013
 184   76366.8    130.9   0.119411869   0.51478   0.71741  -0.00120  -0.00998
 185   76430.5    130.8   0.001747021   0.00753   0.05399  -0.05971  -0.03232
 186   76430.9    130.8   0.002246107   0.00967  -0.07420  -0.04766   0.04355
 187   76482.7    130.7   0.009367675   0.04032  -0.18563   0.00375   0.07649
 188   76522.0    130.7   0.002965968   0.01276  -0.01195   0.11232   0.00114
 189   76577.0    130.6   0.003195739   0.01374  -0.00177  -0.11720   0.00077
 190   76737.1    130.3   0.029442391   0.12631  -0.35351  -0.00004   0.03662
 191   76886.8    130.1   0.025679223   0.10995  -0.31833  -0.00117  -0.09282
 192   77022.2    129.8   0.006849532   0.02928   0.14997   0.00044   0.08238
 193   77150.2    129.6   0.008717234   0.03720  -0.06941  -0.02759  -0.17782
 194   77153.9    129.6   0.003489681   0.01489  -0.01983   0.10885  -0.05147
 195   77267.4    129.4   0.005808700   0.02475  -0.02603  -0.01273  -0.15463
 196   77306.5    129.4   0.000066670   0.00028  -0.00027   0.01670  -0.00220

Dispersion correction           -0.065901967
FINAL SINGLE POINT ENERGY      -616.643050914390

DIPOLE MOMENT
-------------
                                X             Y             Z
Electronic contribution:      0.00040       4.18491      -0.00585
Nuclear contribution   :     -0.00043      -4.42865       0.00620
                        -----------------------------------------
Total Dipole Moment    :     -0.00003      -0.24374       0.00035
                        -----------------------------------------
Magnitude (a.u.)       :      0.24374
Magnitude (Debye)      :      0.61955

Rotational constants in cm-1:     0.032336     0.018307     0.011824
Rotational constants in MHz :   969.401291   548.838383   354.467732

                             ****ORCA TERMINATED NORMALLY****
TOTAL RUN TIME: 0 days 3 hours 2 minutes 40 seconds 450 msec
