                         Program Version 5.0.4 -  RELEASE  -
|  1> !b3lyp 6-311+g** d4
|  2>
|  3> %maxcore 5000
|  4> %pal
|  5> nprocs 7
|  6> end
|  7>
|  8> %tddft
|  9>   nroots 1000
| 10>   end
| 11>
| 12> * xyz 0 1
| 13>   C   2.38288072553686     -2.80809747759916     -0.00001302540077
| 14>   C   1.32516330375168     -3.43682691343072     -0.00004031875764
| 15>   C   0.03637850692888     -2.92737920851046     -0.00011228563143
| 16>   C   -1.23961610372775     -3.46783781533011     -0.00015224783947
| 17>   C   -2.31327450042929     -2.86678029360698     -0.00021781170688
| 18>   C   -2.51651142666677     -1.49584348010742     -0.00026880134927
| 19>   C   -3.62257798397002     -0.66108838578737     -0.00034246579371
| 20>   C   -3.63823900501084      0.56926916190695     -0.00038071688667
| 21>   C   -2.55300511956863      1.43097374781531     -0.00035936992489
| 22>   C   -2.38262631470241      2.80618797079283     -0.00039557856111
| 23>   C   -1.32503488694916      3.43510132547315     -0.00036830083655
| 24>   C   -0.03620516091945      2.92542379696155     -0.00029702210759
| 25>   C   1.23969493474791      3.46620939789555     -0.00025746463591
| 26>   C   2.31313134376548      2.86473741351239     -0.00019335777360
| 27>   C   2.51655881915042      1.49396297259011     -0.00014157749153
| 28>   C   3.62228368387100      0.65888641979714     -0.00006862548773
| 29>   C   3.63884091640520     -0.57144673123578     -0.00002920861116
| 30>   C   2.55312013727719     -1.43284353955406     -0.00004943542213
| 31>   C   1.25902522523116     -0.70708435707089     -0.00012726574344
| 32>   C   1.24099661834980      0.73608314387196     -0.00017525288871
| 33>   C   -0.01788688159609      1.44212905911229     -0.00024850362741
| 34>   C   -1.25887523040155      0.70514635499832     -0.00028299254142
| 35>   C   -1.24093440900409     -0.73802656077442     -0.00023539263229
| 36>   C   0.01798084671426     -1.44401035254419     -0.00016074638425
| 37> **                         ****END OF INPUT****

CARTESIAN COORDINATES (ANGSTROEM)
---------------------------------
  C      2.382881   -2.808097   -0.000013
  C      1.325163   -3.436827   -0.000040
  C      0.036379   -2.927379   -0.000112
  C     -1.239616   -3.467838   -0.000152
  C     -2.313275   -2.866780   -0.000218
  C     -2.516511   -1.495843   -0.000269
  C     -3.622578   -0.661088   -0.000342
  C     -3.638239    0.569269   -0.000381
  C     -2.553005    1.430974   -0.000359
  C     -2.382626    2.806188   -0.000396
  C     -1.325035    3.435101   -0.000368
  C     -0.036205    2.925424   -0.000297
  C      1.239695    3.466209   -0.000257
  C      2.313131    2.864737   -0.000193
  C      2.516559    1.493963   -0.000142
  C      3.622284    0.658886   -0.000069
  C      3.638841   -0.571447   -0.000029
  C      2.553120   -1.432844   -0.000049
  C      1.259025   -0.707084   -0.000127
  C      1.240997    0.736083   -0.000175
  C     -0.017887    1.442129   -0.000249
  C     -1.258875    0.705146   -0.000283
  C     -1.240934   -0.738027   -0.000235
  C      0.017981   -1.444010   -0.000161

 Total Charge           Charge          ....    0
 Multiplicity           Mult            ....    1
 Number of Electrons    NEL             ....  144
 Basis Dimension        Dim             ....  528

ORBITAL ENERGIES
----------------

  NO   OCC          E(Eh)            E(eV)
   0   2.0000     -10.266457      -279.3645
   1   2.0000     -10.266455      -279.3644
   2   2.0000     -10.266442      -279.3641
   3   2.0000     -10.266437      -279.3640
   4   2.0000     -10.266418      -279.3634
   5   2.0000     -10.266405      -279.3631
   6   2.0000     -10.247619      -278.8519
   7   2.0000     -10.247454      -278.8474
   8   2.0000     -10.247445      -278.8472
   9   2.0000     -10.247057      -278.8366
  10   2.0000     -10.247049      -278.8364
  11   2.0000     -10.246856      -278.8311
  12   2.0000     -10.216125      -277.9949
  13   2.0000     -10.216116      -277.9946
  14   2.0000     -10.216112      -277.9945
  15   2.0000     -10.216099      -277.9942
  16   2.0000     -10.216096      -277.9941
  17   2.0000     -10.216080      -277.9937
  18   2.0000     -10.214156      -277.9413
  19   2.0000     -10.214149      -277.9411
  20   2.0000     -10.214148      -277.9411
  21   2.0000     -10.214139      -277.9409
  22   2.0000     -10.214133      -277.9407
  23   2.0000     -10.214129      -277.9406
  24   2.0000      -0.952922       -25.9303
  25   2.0000      -0.921446       -25.0738
  26   2.0000      -0.921438       -25.0736
  27   2.0000      -0.876686       -23.8558
  28   2.0000      -0.876672       -23.8555
  29   2.0000      -0.846608       -23.0374
  30   2.0000      -0.834372       -22.7044
  31   2.0000      -0.806083       -21.9346
  32   2.0000      -0.774027       -21.0623
  33   2.0000      -0.774014       -21.0620
  34   2.0000      -0.760714       -20.7001
  35   2.0000      -0.760699       -20.6997
  36   2.0000      -0.680373       -18.5139
  37   2.0000      -0.680363       -18.5136
  38   2.0000      -0.659866       -17.9559
  39   2.0000      -0.647122       -17.6091
  40   2.0000      -0.647112       -17.6088
  41   2.0000      -0.585677       -15.9371
  42   2.0000      -0.558795       -15.2056
  43   2.0000      -0.554663       -15.0931
  44   2.0000      -0.554641       -15.0926
  45   2.0000      -0.554528       -15.0895
  46   2.0000      -0.537183       -14.6175
  47   2.0000      -0.514097       -13.9893
  48   2.0000      -0.514054       -13.9881
  49   2.0000      -0.490810       -13.3556
  50   2.0000      -0.490801       -13.3554
  51   2.0000      -0.472551       -12.8588
  52   2.0000      -0.450321       -12.2539
  53   2.0000      -0.437386       -11.9019
  54   2.0000      -0.437379       -11.9017
  55   2.0000      -0.428525       -11.6607
  56   2.0000      -0.428512       -11.6604
  57   2.0000      -0.386578       -10.5193
  58   2.0000      -0.386569       -10.5191
  59   2.0000      -0.366228        -9.9656
  60   2.0000      -0.329809        -8.9746
  61   2.0000      -0.315441        -8.5836
  62   2.0000      -0.314712        -8.5638
  63   2.0000      -0.313520        -8.5313
  64   2.0000      -0.313490        -8.5305
  65   2.0000      -0.306524        -8.3410
  66   2.0000      -0.306503        -8.3404
  67   2.0000      -0.305146        -8.3034
  68   2.0000      -0.295594        -8.0435
  69   2.0000      -0.295581        -8.0432
  70   2.0000      -0.251425        -6.8416
  71   2.0000      -0.251412        -6.8413
  72   0.0000      -0.122713        -3.3392
  73   0.0000      -0.121391        -3.3032
  74   0.0000      -0.121375        -3.3028
  75   0.0000      -0.104660        -2.8479
  76   0.0000      -0.098900        -2.6912

MULLIKEN ATOMIC CHARGES
-----------------------
   0 C :   -0.486026
   1 C :   -0.449776
   2 C :    0.989426
   3 C :   -0.186055
   4 C :   -0.199970
   5 C :    0.826745
   6 C :   -0.598568
   7 C :   -0.161468
   8 C :    0.868359
   9 C :   -0.128796
  10 C :   -0.771312
  11 C :    1.427153
  12 C :   -0.118934
  13 C :   -0.366092
  14 C :    0.727098
  15 C :   -0.545274
  16 C :   -0.272283
  17 C :    1.649962
  18 C :    0.855774
  19 C :   -1.800197
  20 C :   -0.431671
  21 C :    1.341080
  22 C :   -2.421035
  23 C :    0.251860
Sum of atomic charges:    0.0000000

LOEWDIN ATOMIC CHARGES
----------------------
   0 C :    0.029518
   1 C :    0.029129
   2 C :   -0.054027
   3 C :    0.029593
   4 C :    0.029092
   5 C :   -0.053932
   6 C :    0.029445
   7 C :    0.029214
   8 C :   -0.053991
   9 C :    0.029595
  10 C :    0.029034
  11 C :   -0.053950
  12 C :    0.029517
  13 C :    0.029192
  14 C :   -0.054034
  15 C :    0.029660
  16 C :    0.028993
  17 C :   -0.053868
  18 C :   -0.004663
  19 C :   -0.004698
  20 C :   -0.004756
  21 C :   -0.004582
  22 C :   -0.004813
  23 C :   -0.004667

  Mayer bond orders larger than 0.100000
B(  0-C ,  1-C ) :   0.9622 B(  0-C ,  3-C ) :  -0.3309 B(  0-C ,  4-C ) :   0.1646
B(  0-C ,  5-C ) :   0.4937 B(  0-C ,  6-C ) :   0.1682 B(  0-C , 11-C ) :  -0.1833
B(  0-C , 12-C ) :   0.2287 B(  0-C , 14-C ) :  -0.3317 B(  0-C , 15-C ) :  -0.1359
B(  0-C , 16-C ) :  -1.4797 B(  0-C , 17-C ) :  -1.0888 B(  0-C , 18-C ) :   1.6205
B(  0-C , 19-C ) :  -0.6242 B(  0-C , 20-C ) :   0.7541 B(  0-C , 21-C ) :  -0.6471
B(  0-C , 22-C ) :   1.0143 B(  0-C , 23-C ) :  -0.6379 B(  1-C ,  2-C ) :  -0.9139
B(  1-C ,  3-C ) :  -1.3921 B(  1-C ,  5-C ) :   0.2273 B(  1-C ,  8-C ) :  -0.2947
B(  1-C ,  9-C ) :   0.2719 B(  1-C , 10-C ) :   0.3748 B(  1-C , 11-C ) :  -0.2610
B(  1-C , 12-C ) :  -0.2456 B(  1-C , 14-C ) :   0.6768 B(  1-C , 15-C ) :   0.1019
B(  1-C , 16-C ) :  -0.1609 B(  1-C , 17-C ) :  -0.2713 B(  1-C , 18-C ) :  -1.1703
B(  1-C , 19-C ) :   2.0496 B(  1-C , 20-C ) :  -1.1887 B(  1-C , 21-C ) :  -0.2554
B(  1-C , 22-C ) :   0.6643 B(  1-C , 23-C ) :   0.8596 B(  2-C ,  4-C ) :   0.3175
B(  2-C ,  5-C ) :  -0.1788 B(  2-C ,  8-C ) :   0.8614 B(  2-C , 10-C ) :  -0.4584
B(  2-C , 11-C ) :   0.9418 B(  2-C , 13-C ) :   0.1625 B(  2-C , 14-C ) :  -0.1892
B(  2-C , 15-C ) :   0.2528 B(  2-C , 16-C ) :  -0.3680 B(  2-C , 17-C ) :   0.5692
B(  2-C , 18-C ) :   0.7780 B(  2-C , 19-C ) :  -1.3696 B(  2-C , 20-C ) :  -0.7577
B(  2-C , 21-C ) :   1.6361 B(  2-C , 22-C ) :  -1.7129 B(  3-C ,  4-C ) :   0.3951
B(  3-C ,  5-C ) :  -0.3055 B(  3-C ,  6-C ) :  -0.1728 B(  3-C ,  7-C ) :   0.1015
B(  3-C ,  9-C ) :  -0.1194 B(  3-C , 11-C ) :   0.1095 B(  3-C , 14-C ) :  -0.2669
B(  3-C , 17-C ) :  -0.1849 B(  3-C , 18-C ) :  -0.7194 B(  3-C , 19-C ) :  -0.1294
B(  3-C , 20-C ) :   0.5125 B(  3-C , 21-C ) :   0.1959 B(  3-C , 22-C ) :  -0.5485
B(  3-C , 23-C ) :   1.9324 B(  4-C ,  5-C ) :  -0.4478 B(  4-C ,  6-C ) :  -1.3068
B(  4-C ,  8-C ) :  -0.2121 B(  4-C , 12-C ) :   0.1022 B(  4-C , 20-C ) :   0.4926
B(  4-C , 21-C ) :  -1.0435 B(  4-C , 22-C ) :   1.4029 B(  4-C , 23-C ) :  -0.2553
B(  5-C ,  6-C ) :  -1.2331 B(  5-C ,  7-C ) :  -0.1018 B(  5-C ,  8-C ) :   0.1433
B(  5-C ,  9-C ) :   0.1262 B(  5-C , 10-C ) :   0.3558 B(  5-C , 11-C ) :  -0.1660
B(  5-C , 12-C ) :  -0.2423 B(  5-C , 14-C ) :   0.5631 B(  5-C , 15-C ) :  -0.2384
B(  5-C , 16-C ) :  -0.3691 B(  5-C , 17-C ) :   0.1054 B(  5-C , 18-C ) :   0.1361
B(  5-C , 19-C ) :   0.1913 B(  5-C , 20-C ) :  -0.1918 B(  5-C , 21-C ) :  -0.9283
B(  5-C , 22-C ) :   1.9126 B(  5-C , 23-C ) :  -1.0424 B(  6-C ,  7-C ) :   0.2311
B(  6-C ,  8-C ) :   0.1584 B(  6-C , 13-C ) :   0.1456 B(  6-C , 14-C ) :  -0.2786
B(  6-C , 15-C ) :   0.2131 B(  6-C , 18-C ) :   0.4695 B(  6-C , 20-C ) :   0.4175
B(  6-C , 21-C ) :  -0.4261 B(  6-C , 22-C ) :   1.8211 B(  6-C , 23-C ) :  -0.9335
B(  7-C ,  8-C ) :  -0.3502 B(  7-C ,  9-C ) :  -1.3703 B(  7-C , 10-C ) :  -0.2477
B(  7-C , 14-C ) :  -0.2039 B(  7-C , 15-C ) :   0.1252 B(  7-C , 16-C ) :   0.1040
B(  7-C , 20-C ) :  -0.5221 B(  7-C , 21-C ) :   1.6576 B(  7-C , 22-C ) :  -0.5303
B(  7-C , 23-C ) :   0.4730 B(  8-C ,  9-C ) :  -0.4562 B(  8-C , 11-C ) :   0.4781
B(  8-C , 12-C ) :  -0.4202 B(  8-C , 13-C ) :   0.1102 B(  8-C , 14-C ) :   0.4324
B(  8-C , 17-C ) :   0.8465 B(  8-C , 18-C ) :  -0.9200 B(  8-C , 19-C ) :  -0.7541
B(  8-C , 20-C ) :   0.3942 B(  8-C , 21-C ) :  -0.1826 B(  8-C , 22-C ) :  -1.2762
B(  8-C , 23-C ) :   0.9982 B(  9-C , 10-C ) :   0.7279 B(  9-C , 11-C ) :   0.1344
B(  9-C , 16-C ) :  -0.1234 B(  9-C , 18-C ) :  -0.2483 B(  9-C , 19-C ) :   0.4542
B(  9-C , 20-C ) :  -0.4558 B(  9-C , 21-C ) :   0.9980 B(  9-C , 22-C ) :  -0.2688
B( 10-C , 11-C ) :  -1.3771 B( 10-C , 12-C ) :  -1.5199 B( 10-C , 13-C ) :  -0.1424
B( 10-C , 14-C ) :   0.3258 B( 10-C , 19-C ) :   0.5700 B( 10-C , 20-C ) :   0.9707
B( 10-C , 21-C ) :  -0.6771 B( 10-C , 22-C ) :   1.6346 B( 10-C , 23-C ) :  -0.7753
B( 11-C , 12-C ) :  -0.2042 B( 11-C , 13-C ) :   0.1084 B( 11-C , 14-C ) :  -0.2888
B( 11-C , 15-C ) :  -0.1778 B( 11-C , 16-C ) :   0.3644 B( 11-C , 17-C ) :   0.5899
B( 11-C , 18-C ) :   1.2233 B( 11-C , 19-C ) :  -1.7745 B( 11-C , 20-C ) :  -0.1117
B( 11-C , 21-C ) :   0.4833 B( 11-C , 22-C ) :  -1.3575 B( 11-C , 23-C ) :  -0.5493
B( 12-C , 13-C ) :   0.3435 B( 12-C , 14-C ) :   0.1021 B( 12-C , 15-C ) :  -0.1916
B( 12-C , 16-C ) :   0.1884 B( 12-C , 19-C ) :  -0.3840 B( 12-C , 20-C ) :   1.9173
B( 12-C , 21-C ) :  -0.9043 B( 12-C , 22-C ) :   0.2116 B( 12-C , 23-C ) :   0.2477
B( 13-C , 14-C ) :  -0.5376 B( 13-C , 15-C ) :  -1.0852 B( 13-C , 16-C ) :  -0.3727
B( 13-C , 17-C ) :  -0.2525 B( 13-C , 18-C ) :  -0.9584 B( 13-C , 19-C ) :   1.3251
B( 13-C , 23-C ) :   0.4854 B( 14-C , 15-C ) :  -1.1325 B( 14-C , 17-C ) :   0.3954
B( 14-C , 18-C ) :  -0.7713 B( 14-C , 19-C ) :   1.4343 B( 14-C , 20-C ) :  -0.7548
B( 14-C , 21-C ) :   0.2913 B( 14-C , 23-C ) :  -0.1383 B( 15-C , 16-C ) :   0.5654
B( 15-C , 17-C ) :   0.1109 B( 15-C , 18-C ) :  -0.4068 B( 15-C , 19-C ) :   1.6681
B( 15-C , 20-C ) :  -0.8731 B( 15-C , 21-C ) :   0.4929 B( 15-C , 22-C ) :  -0.3426
B( 15-C , 23-C ) :   0.5395 B( 16-C , 17-C ) :  -0.5860 B( 16-C , 18-C ) :   1.9362
B( 16-C , 19-C ) :  -0.7860 B( 16-C , 20-C ) :   0.7399 B( 16-C , 21-C ) :  -0.1106
B( 16-C , 22-C ) :   0.3050 B( 16-C , 23-C ) :  -0.6754 B( 17-C , 18-C ) :  -0.5743
B( 17-C , 19-C ) :  -1.5971 B( 17-C , 20-C ) :   0.7057 B( 17-C , 21-C ) :  -0.3044
B( 17-C , 22-C ) :  -1.4362 B( 17-C , 23-C ) :   0.4122 B( 18-C , 19-C ) :   1.6553
B( 18-C , 20-C ) :   0.2496 B( 18-C , 21-C ) :   1.4744 B( 18-C , 22-C ) :  -2.1620
B( 18-C , 23-C ) :   3.6687 B( 19-C , 20-C ) :   3.5547 B( 19-C , 21-C ) :  -2.4484
B( 19-C , 22-C ) :   3.9474 B( 19-C , 23-C ) :   0.3300 B( 20-C , 21-C ) :   4.0636
B( 20-C , 22-C ) :  -0.2150 B( 20-C , 23-C ) :  -0.7075 B( 21-C , 22-C ) :   0.8767
B( 21-C , 23-C ) :   0.1856 B( 22-C , 23-C ) :   3.2153

-----------------------------------------------------------------------------
         ABSORPTION SPECTRUM VIA TRANSITION ELECTRIC DIPOLE MOMENTS
-----------------------------------------------------------------------------
State   Energy    Wavelength  fosc         T2        TX        TY        TZ
        (cm-1)      (nm)                 (au**2)    (au)      (au)      (au)
-----------------------------------------------------------------------------
   1   21496.9    465.2   0.000000002   0.00000  -0.00000   0.00000  -0.00019
   2   21500.1    465.1   0.000000000   0.00000   0.00000  -0.00000   0.00004
   3   21686.8    461.1   0.000000001   0.00000   0.00000  -0.00000   0.00014
   4   21830.3    458.1   0.000000000   0.00000   0.00000   0.00000  -0.00001
   5   21831.4    458.1   0.000000000   0.00000   0.00000  -0.00000   0.00003
   6   22062.4    453.3   0.000000000   0.00000   0.00000  -0.00000   0.00005
   7   25691.5    389.2   0.000000001   0.00000   0.00000  -0.00000  -0.00008
   8   25693.9    389.2   0.000000000   0.00000  -0.00000   0.00000  -0.00007
   9   26097.8    383.2   0.000000003   0.00000   0.00000  -0.00000   0.00019
  10   26667.5    375.0   0.000000083   0.00000  -0.00000  -0.00000  -0.00101
  11   26668.2    375.0   0.000000000   0.00000  -0.00000   0.00000   0.00001
  12   27136.3    368.5   0.002792534   0.03388   0.00001  -0.00001  -0.18406
  13   27327.1    365.9   0.000000021   0.00000  -0.00048  -0.00016   0.00001
  14   28667.6    348.8   0.000000035   0.00000   0.00001  -0.00063  -0.00000
  15   31633.9    316.1   0.000000000   0.00000   0.00000  -0.00000  -0.00002
  16   31705.3    315.4   0.000000000   0.00000  -0.00000   0.00000  -0.00007
  17   31709.3    315.4   0.000000003   0.00000  -0.00000  -0.00000   0.00016
  18   31851.6    314.0   0.000000004   0.00000   0.00000  -0.00001  -0.00020
  19   31853.2    313.9   0.000000001   0.00000  -0.00000   0.00000   0.00009
  20   32538.1    307.3   0.000446971   0.00452  -0.00000   0.00001   0.06725
  21   33284.9    300.4   0.123366414   1.22018  -0.29597  -1.06423   0.00002
  22   33287.2    300.4   0.123607304   1.22248   1.06526  -0.29613   0.00006
  23   34930.0    286.3   0.000000019   0.00000   0.00039  -0.00017   0.00000
  24   35180.6    284.2   0.000000541   0.00001  -0.00196  -0.00111  -0.00000
  25   35183.7    284.2   0.000000077   0.00000  -0.00007  -0.00085   0.00000
  26   35185.2    284.2   0.000000107   0.00000   0.00037  -0.00093  -0.00000
  27   35853.7    278.9   0.000000575   0.00001  -0.00153  -0.00172  -0.00000
  28   35856.3    278.9   0.000000006   0.00000  -0.00000  -0.00000   0.00024
  29   35858.9    278.9   0.000000001   0.00000  -0.00000  -0.00000  -0.00008
  30   35890.5    278.6   0.000000002   0.00000  -0.00001  -0.00001  -0.00013
  31   35952.9    278.1   0.000000000   0.00000   0.00002   0.00000   0.00002
  32   36437.8    274.4   0.000000005   0.00000  -0.00000  -0.00001   0.00020
  33   36440.8    274.4   0.000000000   0.00000  -0.00000  -0.00000   0.00006
  34   36559.9    273.5   0.000000160   0.00000  -0.00015  -0.00119  -0.00000
  35   36562.5    273.5   0.000000205   0.00000  -0.00120  -0.00063   0.00000
  36   36592.7    273.3   0.000020778   0.00019  -0.00882   0.01045  -0.00000
  37   36595.2    273.3   0.000032759   0.00029  -0.01162  -0.01263   0.00000
  38   36835.4    271.5   0.000000044   0.00000   0.00055   0.00029  -0.00000
  39   36839.3    271.4   0.000000064   0.00000   0.00056  -0.00051   0.00000
  40   36871.2    271.2   0.000000000   0.00000  -0.00000  -0.00000  -0.00003
  41   36872.2    271.2   0.000000000   0.00000  -0.00001  -0.00001   0.00001
  42   36903.5    271.0   0.000000017   0.00000   0.00039   0.00004   0.00000
  43   37397.1    267.4   0.000077765   0.00068  -0.02513  -0.00729  -0.00000
  44   37422.3    267.2   0.000006878   0.00006   0.00578  -0.00520  -0.00000
  45   37424.9    267.2   0.000117467   0.00103   0.03140   0.00690   0.00000
  46   37484.9    266.8   0.150957296   1.32579   0.34913   1.09722  -0.00002
  47   37487.5    266.8   0.150957313   1.32569   1.09707  -0.34947   0.00006
  48   37562.8    266.2   0.000000000   0.00000   0.00002  -0.00001  -0.00002
  49   37578.3    266.1   0.000001241   0.00001   0.00103   0.00313   0.00000
  50   37695.1    265.3   0.000003737   0.00003  -0.00516   0.00244  -0.00000
  51   37853.0    264.2   0.000009112   0.00008   0.00818  -0.00352  -0.00000
  52   37953.6    263.5   0.000001454   0.00001  -0.00221   0.00278   0.00000
  53   37957.3    263.5   0.000005728   0.00005   0.00668   0.00224  -0.00000
  54   38561.7    259.3   0.000000041   0.00000  -0.00000  -0.00000  -0.00059
  55   38563.0    259.3   0.000000364   0.00000   0.00000  -0.00000  -0.00176
  56   38607.9    259.0   0.000000988   0.00001   0.00028   0.00289  -0.00000
  57   38815.1    257.6   0.000458976   0.00389  -0.00000   0.00000   0.06239
  58   38819.3    257.6   0.000058400   0.00050   0.00001   0.00001   0.02225
  59   38830.9    257.5   0.007394054   0.06269   0.00001  -0.00001  -0.25037
  60   38876.2    257.2   0.000001323   0.00001  -0.00000  -0.00001  -0.00335
  61   39192.2    255.2   0.000000002   0.00000   0.00000   0.00001  -0.00012
  62   39518.5    253.0   0.171821577   1.43137   1.19389   0.07742   0.00005
  63   39520.9    253.0   0.172194189   1.43439  -0.07628   1.19523  -0.00004
  64   39734.2    251.7   0.000000082   0.00000   0.00005  -0.00003   0.00082
  65   39737.5    251.7   0.000000043   0.00000  -0.00001  -0.00001   0.00060
  66   40129.7    249.2   0.000000000   0.00000  -0.00001  -0.00001   0.00002
  67   40292.6    248.2   0.005978915   0.04885  -0.00003   0.00001   0.22102
  68   40307.0    248.1   0.000000280   0.00000   0.00001  -0.00001   0.00151
  69   40310.3    248.1   0.000003153   0.00003   0.00001   0.00000   0.00507
  70   40533.3    246.7   0.000000006   0.00000   0.00000  -0.00001   0.00022
  71   40534.9    246.7   0.000000002   0.00000   0.00000   0.00001  -0.00012
  72   40778.9    245.2   0.000000016   0.00000  -0.00030  -0.00020   0.00000
  73   40781.6    245.2   0.000000004   0.00000  -0.00013  -0.00012  -0.00000
  74   40877.0    244.6   0.000163375   0.00132  -0.01948   0.03060  -0.00000
  75   40879.9    244.6   0.000163943   0.00132   0.02928   0.02152   0.00000
  76   40946.3    244.2   0.000000001   0.00000   0.00000  -0.00001   0.00010
  77   41066.4    243.5   0.000001208   0.00001  -0.00294  -0.00103  -0.00000
  78   41277.3    242.3   0.000000006   0.00000   0.00001   0.00001   0.00022
  79   41282.5    242.2   0.000000001   0.00000   0.00001   0.00002  -0.00007
  80   41519.2    240.9   0.000000042   0.00000  -0.00050   0.00029  -0.00000
  81   41654.4    240.1   0.000000023   0.00000  -0.00026   0.00033   0.00000
  82   41656.3    240.1   0.000000055   0.00000   0.00018  -0.00063  -0.00000
  83   42212.9    236.9   0.000000157   0.00000   0.00111   0.00001   0.00000
  84   42218.9    236.9   0.000000121   0.00000  -0.00094   0.00023  -0.00000
  85   42274.1    236.6   0.000000207   0.00000   0.00035  -0.00122   0.00000
  86   42400.3    235.8   0.000000001   0.00000  -0.00004  -0.00007   0.00000
  87   42452.9    235.6   0.000000845   0.00001   0.00110   0.00231   0.00000
  88   42457.6    235.5   0.000000671   0.00001  -0.00202   0.00105   0.00000
  89   43116.8    231.9   0.000000028   0.00000   0.00037   0.00011   0.00026
  90   43167.5    231.7   0.278548837   2.12432   1.37172  -0.49264   0.00007
  91   43169.5    231.6   0.277473078   2.11602  -0.49272  -1.36867   0.00002
  92   43912.5    227.7   0.000000202   0.00000   0.00029  -0.00120  -0.00000
  93   43915.4    227.7   0.000000034   0.00000  -0.00047   0.00018  -0.00000
  94   43922.2    227.7   0.000001069   0.00001   0.00162  -0.00232  -0.00000
  95   44119.6    226.7   0.000000000   0.00000  -0.00001  -0.00002  -0.00001
  96   44125.6    226.6   0.000000000   0.00000  -0.00001   0.00002  -0.00003
  97   44328.5    225.6   0.000000006   0.00000  -0.00017  -0.00012  -0.00000
  98   45085.7    221.8   0.000000014   0.00000  -0.00032   0.00002  -0.00000
  99   46179.4    216.5   0.000000440   0.00000   0.00177   0.00003  -0.00000
 100   46497.0    215.1   0.000000079   0.00000   0.00073   0.00016   0.00000
 101   46500.4    215.1   0.000000020   0.00000  -0.00007   0.00037   0.00000
 102   47399.3    211.0   0.000000001   0.00000   0.00000  -0.00000   0.00007
 103   47665.4    209.8   0.000000000   0.00000  -0.00000  -0.00000  -0.00000
 104   47669.1    209.8   0.000000000   0.00000  -0.00000   0.00000  -0.00001
 105   48922.6    204.4   0.094042003   0.63283  -0.51065  -0.60998  -0.00000
 106   48922.7    204.4   0.094075207   0.63305   0.60999  -0.51085   0.00004
 107   49305.1    202.8   0.000000004   0.00000   0.00000   0.00000  -0.00016
 108   49445.7    202.2   0.000000000   0.00000   0.00002  -0.00002  -0.00002
 109   49449.0    202.2   0.000000000   0.00000   0.00003  -0.00002  -0.00004
 110   50182.8    199.3   0.000000031   0.00000   0.00010  -0.00044   0.00000
 111   50184.8    199.3   0.000000138   0.00000  -0.00093  -0.00020   0.00000
 112   50275.5    198.9   0.000000000   0.00000   0.00002   0.00000  -0.00005
 113   50301.6    198.8   0.000000000   0.00000  -0.00001   0.00000   0.00004
 114   50305.1    198.8   0.000000000   0.00000   0.00001   0.00000  -0.00001
 115   50427.6    198.3   0.000000000   0.00000   0.00000   0.00001  -0.00003
 116   50465.5    198.2   0.000000001   0.00000   0.00001   0.00000  -0.00009
 117   50814.0    196.8   0.000000001   0.00000   0.00000  -0.00000  -0.00007
 118   50970.9    196.2   0.000000000   0.00000  -0.00001  -0.00000   0.00001
 119   50989.1    196.1   0.000000010   0.00000  -0.00000   0.00002  -0.00025
 120   50990.7    196.1   0.000000002   0.00000  -0.00000  -0.00000   0.00011
 121   51095.1    195.7   0.000000000   0.00000   0.00000   0.00000  -0.00004
 122   51101.0    195.7   0.000000011   0.00000   0.00000  -0.00000  -0.00027
 123   51207.3    195.3   0.000000041   0.00000   0.00000   0.00001  -0.00051
 124   51463.2    194.3   0.000001205   0.00001   0.00014  -0.00277  -0.00000
 125   51484.0    194.2   0.000000029   0.00000   0.00000  -0.00003   0.00043
 126   51486.1    194.2   0.000000000   0.00000  -0.00001   0.00001   0.00005
 127   52133.1    191.8   0.000000027   0.00000   0.00004  -0.00003   0.00041
 128   52135.4    191.8   0.000000035   0.00000   0.00012   0.00002  -0.00045
 129   52178.7    191.6   0.000000000   0.00000   0.00001  -0.00002   0.00004
 130   52179.8    191.6   0.000000000   0.00000   0.00003  -0.00002   0.00003
 131   52240.1    191.4   0.057409401   0.36179   0.60101  -0.02395   0.00003
 132   52243.9    191.4   0.057659271   0.36334  -0.02367  -0.60231   0.00002
 133   52296.6    191.2   0.000000124   0.00000   0.00008  -0.00005   0.00088
 134   52346.9    191.0   0.000000000   0.00000  -0.00000  -0.00000   0.00002
 135   52561.6    190.3   0.000000000   0.00000   0.00001   0.00000   0.00003
 136   52616.8    190.1   0.000001048   0.00001   0.00001  -0.00001   0.00256
 137   52621.7    190.0   0.000001722   0.00001   0.00000  -0.00001  -0.00328
 138   52739.5    189.6   0.005429160   0.03389   0.00000  -0.00002   0.18409
 139   52887.4    189.1   0.000000027   0.00000   0.00000   0.00000   0.00041
 140   52892.3    189.1   0.000000018   0.00000  -0.00000  -0.00000   0.00034
 141   54345.6    184.0   0.793350135   4.80591   1.35797   1.72100   0.00001
 142   54346.4    184.0   0.792431276   4.80028  -1.71687   1.36112  -0.00012
 143   54917.3    182.1   0.013802758   0.08274   0.28026  -0.06480   0.00002
 144   54919.8    182.1   0.012705853   0.07616   0.07040   0.26685  -0.00001
 145   55178.6    181.2   0.000000000   0.00000  -0.00000  -0.00000  -0.00000
 146   55178.6    181.2   0.000000000   0.00000  -0.00000  -0.00000  -0.00000
 147   55178.6    181.2   0.000000000   0.00000   0.00000   0.00000   0.00000
 148   55178.6    181.2   0.000000000   0.00000  -0.00000  -0.00000  -0.00000
 149   55181.5    181.2   0.000000000   0.00000  -0.00000   0.00000  -0.00000
 150   55181.5    181.2   0.000000000   0.00000   0.00000  -0.00000   0.00000
 151   55181.5    181.2   0.000000000   0.00000  -0.00000  -0.00000  -0.00000
 152   55181.5    181.2   0.000000000   0.00000   0.00000  -0.00000   0.00000
 153   55582.4    179.9   0.000004230   0.00003   0.00021  -0.00500   0.00000
 154   55644.6    179.7   0.000000000   0.00000  -0.00000   0.00000  -0.00003
 155   55658.7    179.7   0.000000023   0.00000  -0.00000   0.00000  -0.00037
 156   55663.8    179.6   0.000000022   0.00000   0.00000  -0.00001   0.00036
 157   55889.7    178.9   0.000000001   0.00000  -0.00000  -0.00001   0.00006
 158   55892.0    178.9   0.000000001   0.00000  -0.00001  -0.00000  -0.00006
 159   55900.4    178.9   0.000000013   0.00000  -0.00000   0.00001  -0.00028
 160   56321.9    177.6   0.000000002   0.00000  -0.00000   0.00000   0.00011
 161   56927.7    175.7   0.000000545   0.00000  -0.00000   0.00000   0.00178
 162   56928.5    175.7   0.000000092   0.00000   0.00000   0.00000   0.00073
 163   57121.1    175.1   0.005224517   0.03011   0.00001  -0.00000  -0.17353
 164   57539.6    173.8   0.000000002   0.00000  -0.00001   0.00004   0.00010
 165   57541.7    173.8   0.000000022   0.00000  -0.00004  -0.00000  -0.00035
 166   57674.5    173.4   0.000023071   0.00013   0.01125   0.00227  -0.00000
 167   57899.7    172.7   0.000000764   0.00000   0.00070   0.00196  -0.00000
 168   57917.1    172.7   0.000001786   0.00001  -0.00319  -0.00007   0.00000
 169   58039.5    172.3   0.413436675   2.34510   1.53124   0.01997   0.00007
 170   58040.7    172.3   0.410645388   2.32922   0.02054  -1.52604   0.00005
 171   58457.5    171.1   0.061832238   0.34822  -0.58876  -0.03967  -0.00003
 172   58459.1    171.1   0.063897672   0.35984   0.03938  -0.59857   0.00002
 173   58785.3    170.1   0.000000320   0.00000   0.00007   0.00134   0.00000
 174   58790.2    170.1   0.000001084   0.00001  -0.00241  -0.00049   0.00000
 175   59111.1    169.2   0.000000146   0.00000   0.00054   0.00072  -0.00000
 176   59446.9    168.2   0.000000321   0.00000   0.00000  -0.00000   0.00133
 177   59489.0    168.1   0.000001444   0.00001  -0.00000  -0.00000  -0.00283
 178   59675.2    167.6   0.010459920   0.05770  -0.00001   0.00003   0.24022
 179   59777.3    167.3   0.000000163   0.00000  -0.00001   0.00000   0.00095
 180   59822.9    167.2   0.000834968   0.00459   0.00001   0.00001  -0.06779
 181   59868.3    167.0   0.000000678   0.00000  -0.00000   0.00000  -0.00193
 182   60173.6    166.2   0.000001038   0.00001  -0.00021   0.00237   0.00000
 183   60739.5    164.6   0.000000833   0.00000   0.00208   0.00041   0.00000
 184   61084.4    163.7   0.012912001   0.06959  -0.26359  -0.01034  -0.00001
 185   61090.0    163.7   0.013210191   0.07119   0.00917  -0.26666   0.00001
 186   61208.2    163.4   0.000003132   0.00002  -0.00240  -0.00333  -0.00000
 187   61582.9    162.4   0.000003278   0.00002  -0.00404  -0.00109  -0.00000
 188   61585.6    162.4   0.000000804   0.00000  -0.00070   0.00195  -0.00000
 189   61792.4    161.8   0.000004229   0.00002  -0.00450  -0.00151  -0.00000
 190   62062.7    161.1   0.468152141   2.48331  -1.57578  -0.01472  -0.00007
 191   62065.9    161.1   0.471349859   2.50015  -0.01722   1.58109  -0.00005
 192   62487.6    160.0   0.216259164   1.13935   0.87166  -0.61609   0.00006
 193   62488.8    160.0   0.217573238   1.14625   0.62394   0.87003   0.00000
 194   62555.0    159.9   0.000000097   0.00000  -0.00007  -0.00011   0.00070
 195   62689.8    159.5   0.000000004   0.00000  -0.00001  -0.00001   0.00014
 196   62720.8    159.4   0.000000004   0.00000  -0.00001  -0.00001  -0.00014

Dispersion correction           -0.088389756
FINAL SINGLE POINT ENERGY      -913.535087577674

DIPOLE MOMENT
-------------
                                X             Y             Z
Electronic contribution:      0.00029       0.00075       0.00000
Nuclear contribution   :      0.00000      -0.00000      -0.00000
                        -----------------------------------------
Total Dipole Moment    :      0.00029       0.00075       0.00000
                        -----------------------------------------
Magnitude (a.u.)       :      0.00080
Magnitude (Debye)      :      0.00205

Rotational constants in cm-1:     0.012387     0.012385     0.006193
Rotational constants in MHz :   371.353181   371.307534   185.665178

                             ****ORCA TERMINATED NORMALLY****
TOTAL RUN TIME: 0 days 3 hours 58 minutes 57 seconds 234 msec
