                         Program Version 5.0.4 -  RELEASE  -
|  1> !b3lyp 6-311+g** d4 pal4
|  2>
|  3> %tddft
|  4>   nroots 1000
|  5>   end
|  6>
|  7> * xyz 0 1
|  8>   C   2.46587829059602     -2.85209622660715     -0.00000844596753
|  9>   C   1.27197164780743     -3.52578101192475     -0.00004034802603
| 10>   C   0.03645370574860     -2.83450454250956     -0.00011677634452
| 11>   C   -1.20102635723416     -3.53637879251611     -0.00014997387580
| 12>   C   -2.39043304592483     -2.86934011818053     -0.00022349952043
| 13>   C   -2.43666448247310     -1.44744607070083     -0.00026897404534
| 14>   C   -3.67080317539930     -0.75371305793192     -0.00034540917133
| 15>   C   -3.71857039652198      0.61628420705963     -0.00038922807348
| 16>   C   -2.52579505679011      1.36522394088415     -0.00035831341465
| 17>   C   -2.34876357429714      2.75981916944951     -0.00039302347956
| 18>   C   -1.29469104624543      3.39227666483765     -0.00036439771555
| 19>   C   0.01968255538226      2.89263030704620     -0.00029063389281
| 20>   C   1.23388198054622      3.60280451677366     -0.00025839626900
| 21>   C   2.43166290469434      2.93103631407777     -0.00018622645424
| 22>   C   2.45892458583099      1.52467297163542     -0.00014315096996
| 23>   C   3.57060927186722      0.66368955905306     -0.00006839105386
| 24>   C   3.58060663094520     -0.56548846841396     -0.00003076107505
| 25>   C   2.48302355076120     -1.44376459961237     -0.00005150537303
| 26>   C   1.25286252520521     -0.69109976420405     -0.00012943350285
| 27>   C   1.23746498097765      0.75006871154483     -0.00017170589850
| 28>   C   -0.00431752370230      1.44654941846979     -0.00024918629715
| 29>   C   -1.24206241960537      0.70816376985789     -0.00028044241321
| 30>   C   -1.21852163457372     -0.71410581408496     -0.00023756862347
| 31>   C   0.02705358211935     -1.41270161852533     -0.00016005319311
| 32>   H   3.40769403683237     -3.38644203302049      0.00005093405845
| 33>   H   1.25927718467515     -4.61025457616519     -0.00000734188350
| 34>   H   -1.17982001220587     -4.62076383924112     -0.00011572048100
| 35>   H   -3.32669333215855     -3.41685157557390     -0.00024828994037
| 36>   H   -4.58952137659440     -1.33007238665158     -0.00036951857666
| 37>   H   -4.66558027135675      1.14137160397668     -0.00044825036478
| 38>   H   1.20476347029891      4.68513764039469     -0.00029196264127
| 39>   H   3.37031148676954      3.47069713532061     -0.00016145710288
| 40> **                         ****END OF INPUT****

CARTESIAN COORDINATES (ANGSTROEM)
---------------------------------
  C      2.465878   -2.852096   -0.000008
  C      1.271972   -3.525781   -0.000040
  C      0.036454   -2.834505   -0.000117
  C     -1.201026   -3.536379   -0.000150
  C     -2.390433   -2.869340   -0.000223
  C     -2.436664   -1.447446   -0.000269
  C     -3.670803   -0.753713   -0.000345
  C     -3.718570    0.616284   -0.000389
  C     -2.525795    1.365224   -0.000358
  C     -2.348764    2.759819   -0.000393
  C     -1.294691    3.392277   -0.000364
  C      0.019683    2.892630   -0.000291
  C      1.233882    3.602805   -0.000258
  C      2.431663    2.931036   -0.000186
  C      2.458925    1.524673   -0.000143
  C      3.570609    0.663690   -0.000068
  C      3.580607   -0.565488   -0.000031
  C      2.483024   -1.443765   -0.000052
  C      1.252863   -0.691100   -0.000129
  C      1.237465    0.750069   -0.000172
  C     -0.004318    1.446549   -0.000249
  C     -1.242062    0.708164   -0.000280
  C     -1.218522   -0.714106   -0.000238
  C      0.027054   -1.412702   -0.000160
  H      3.407694   -3.386442    0.000051
  H      1.259277   -4.610255   -0.000007
  H     -1.179820   -4.620764   -0.000116
  H     -3.326693   -3.416852   -0.000248
  H     -4.589521   -1.330072   -0.000370
  H     -4.665580    1.141372   -0.000448
  H      1.204763    4.685138   -0.000292
  H      3.370311    3.470697   -0.000161

 Total Charge           Charge          ....    0
 Multiplicity           Mult            ....    1
 Number of Electrons    NEL             ....  152
 Basis Dimension        Dim             ....  576

ORBITAL ENERGIES
----------------

  NO   OCC          E(Eh)            E(eV)
   0   2.0000     -10.221340      -278.1368
   1   2.0000     -10.221324      -278.1364
   2   2.0000     -10.220744      -278.1206
   3   2.0000     -10.220742      -278.1205
   4   2.0000     -10.211240      -277.8620
   5   2.0000     -10.210801      -277.8500
   6   2.0000     -10.208221      -277.7798
   7   2.0000     -10.208215      -277.7796
   8   2.0000     -10.203302      -277.6460
   9   2.0000     -10.202876      -277.6344
  10   2.0000     -10.199830      -277.5515
  11   2.0000     -10.199821      -277.5512
  12   2.0000     -10.193239      -277.3721
  13   2.0000     -10.192604      -277.3549
  14   2.0000     -10.191725      -277.3309
  15   2.0000     -10.191718      -277.3308
  16   2.0000     -10.190908      -277.3087
  17   2.0000     -10.190901      -277.3085
  18   2.0000     -10.189270      -277.2641
  19   2.0000     -10.188589      -277.2456
  20   2.0000     -10.186771      -277.1961
  21   2.0000     -10.186767      -277.1960
  22   2.0000     -10.184784      -277.1421
  23   2.0000     -10.184781      -277.1420
  24   2.0000      -0.925861       -25.1940
  25   2.0000      -0.891440       -24.2573
  26   2.0000      -0.889273       -24.1983
  27   2.0000      -0.843889       -22.9634
  28   2.0000      -0.842733       -22.9319
  29   2.0000      -0.822485       -22.3810
  30   2.0000      -0.796954       -21.6862
  31   2.0000      -0.778297       -21.1785
  32   2.0000      -0.760495       -20.6941
  33   2.0000      -0.754166       -20.5219
  34   2.0000      -0.729687       -19.8558
  35   2.0000      -0.729520       -19.8512
  36   2.0000      -0.655253       -17.8304
  37   2.0000      -0.655024       -17.8241
  38   2.0000      -0.641443       -17.4546
  39   2.0000      -0.637869       -17.3573
  40   2.0000      -0.631869       -17.1940
  41   2.0000      -0.584554       -15.9065
  42   2.0000      -0.554614       -15.0918
  43   2.0000      -0.550442       -14.9783
  44   2.0000      -0.547382       -14.8950
  45   2.0000      -0.531235       -14.4557
  46   2.0000      -0.528310       -14.3761
  47   2.0000      -0.490986       -13.3604
  48   2.0000      -0.489913       -13.3312
  49   2.0000      -0.477451       -12.9921
  50   2.0000      -0.462383       -12.5821
  51   2.0000      -0.460427       -12.5289
  52   2.0000      -0.452466       -12.3122
  53   2.0000      -0.445280       -12.1167
  54   2.0000      -0.442899       -12.0519
  55   2.0000      -0.429288       -11.6815
  56   2.0000      -0.424988       -11.5645
  57   2.0000      -0.406309       -11.0562
  58   2.0000      -0.404733       -11.0133
  59   2.0000      -0.403491       -10.9796
  60   2.0000      -0.397111       -10.8059
  61   2.0000      -0.390436       -10.6243
  62   2.0000      -0.390069       -10.6143
  63   2.0000      -0.353028        -9.6064
  64   2.0000      -0.352198        -9.5838
  65   2.0000      -0.350720        -9.5436
  66   2.0000      -0.349354        -9.5064
  67   2.0000      -0.334482        -9.1017
  68   2.0000      -0.291983        -7.9453
  69   2.0000      -0.286063        -7.7842
  70   2.0000      -0.280022        -7.6198
  71   2.0000      -0.278362        -7.5746
  72   2.0000      -0.269794        -7.3415
  73   2.0000      -0.267949        -7.2913
  74   2.0000      -0.223717        -6.0876
  75   2.0000      -0.221468        -6.0264
  76   0.0000      -0.086820        -2.3625
  77   0.0000      -0.086598        -2.3565
  78   0.0000      -0.076667        -2.0862
  79   0.0000      -0.070542        -1.9196
  80   0.0000      -0.035003        -0.9525

MULLIKEN ATOMIC CHARGES
-----------------------
   0 C :    0.011012
   1 C :   -0.369074
   2 C :    1.845430
   3 C :   -0.426413
   4 C :   -0.474148
   5 C :    1.845246
   6 C :   -0.346497
   7 C :   -0.109013
   8 C :    1.659403
   9 C :   -0.552039
  10 C :    0.406693
  11 C :    1.165474
  12 C :   -0.481910
  13 C :   -0.359023
  14 C :    0.580623
  15 C :    0.252277
  16 C :   -0.483847
  17 C :    2.037755
  18 C :   -1.038869
  19 C :   -0.774321
  20 C :   -1.415192
  21 C :   -0.985616
  22 C :   -1.395472
  23 C :   -1.672188
  24 H :    0.138646
  25 H :    0.130374
  26 H :    0.128767
  27 H :    0.127169
  28 H :    0.130289
  29 H :    0.138025
  30 H :    0.143752
  31 H :    0.142686
Sum of atomic charges:    0.0000000

LOEWDIN ATOMIC CHARGES
----------------------
   0 C :   -0.034139
   1 C :   -0.029005
   2 C :   -0.063759
   3 C :   -0.034475
   4 C :   -0.034508
   5 C :   -0.063762
   6 C :   -0.028991
   7 C :   -0.034161
   8 C :   -0.058934
   9 C :    0.011702
  10 C :    0.011324
  11 C :   -0.060897
  12 C :   -0.030299
  13 C :   -0.030319
  14 C :   -0.060928
  15 C :    0.011329
  16 C :    0.011715
  17 C :   -0.058915
  18 C :   -0.015829
  19 C :   -0.012891
  20 C :   -0.012960
  21 C :   -0.015813
  22 C :   -0.019183
  23 C :   -0.019241
  24 H :    0.085705
  25 H :    0.082508
  26 H :    0.081852
  27 H :    0.081850
  28 H :    0.082527
  29 H :    0.085712
  30 H :    0.086386
  31 H :    0.086399

  Mayer bond orders larger than 0.100000
B(  0-C ,  1-C ) :   0.2471 B(  0-C ,  3-C ) :   0.1260 B(  0-C ,  4-C ) :   0.1431
B(  0-C ,  5-C ) :   0.3975 B(  0-C ,  6-C ) :  -0.1062 B(  0-C ,  7-C ) :   0.1178
B(  0-C ,  8-C ) :  -0.1559 B(  0-C , 14-C ) :  -0.1937 B(  0-C , 15-C ) :   0.6204
B(  0-C , 16-C ) :  -2.2852 B(  0-C , 17-C ) :   0.4969 B(  0-C , 18-C ) :   0.8167
B(  0-C , 19-C ) :   0.3633 B(  0-C , 20-C ) :  -0.4435 B(  0-C , 21-C ) :   0.5431
B(  0-C , 22-C ) :  -0.6032 B(  0-C , 23-C ) :  -0.5083 B(  0-C , 24-H ) :   1.3460
B(  1-C ,  2-C ) :  -0.4742 B(  1-C ,  3-C ) :  -0.8789 B(  1-C ,  4-C ) :   0.1251
B(  1-C ,  5-C ) :  -0.1694 B(  1-C ,  6-C ) :   0.1723 B(  1-C ,  8-C ) :   0.2002
B(  1-C , 11-C ) :  -0.1062 B(  1-C , 14-C ) :   0.1393 B(  1-C , 16-C ) :   0.2228
B(  1-C , 17-C ) :   0.2243 B(  1-C , 18-C ) :   0.1946 B(  1-C , 19-C ) :  -0.3430
B(  1-C , 20-C ) :   0.2466 B(  1-C , 23-C ) :   1.4445 B(  1-C , 25-H ) :   1.2461
B(  1-C , 26-H ) :  -0.2387 B(  2-C ,  3-C ) :  -0.5925 B(  2-C ,  4-C ) :   0.1750
B(  2-C ,  6-C ) :  -0.1796 B(  2-C ,  7-C ) :   0.3466 B(  2-C ,  8-C ) :  -0.1097
B(  2-C ,  9-C ) :  -0.7390 B(  2-C , 10-C ) :   0.2992 B(  2-C , 14-C ) :  -0.1867
B(  2-C , 15-C ) :   0.1882 B(  2-C , 16-C ) :  -0.2414 B(  2-C , 18-C ) :  -0.2533
B(  2-C , 19-C ) :   0.8382 B(  2-C , 20-C ) :  -0.6232 B(  2-C , 21-C ) :   0.2827
B(  2-C , 22-C ) :   0.1064 B(  2-C , 23-C ) :  -1.3327 B(  2-C , 25-H ) :  -0.4421
B(  2-C , 26-H ) :  -0.7826 B(  3-C ,  4-C ) :   0.1781 B(  3-C ,  6-C ) :   0.1359
B(  3-C ,  7-C ) :   0.1393 B(  3-C ,  8-C ) :   0.2739 B(  3-C , 18-C ) :  -0.1479
B(  3-C , 19-C ) :  -0.1018 B(  3-C , 20-C ) :   0.1642 B(  3-C , 22-C ) :  -0.1607
B(  3-C , 23-C ) :   1.5639 B(  3-C , 25-H ) :  -0.1407 B(  3-C , 26-H ) :   1.3939
B(  4-C ,  5-C ) :  -0.5794 B(  4-C ,  6-C ) :  -0.7497 B(  4-C ,  7-C ) :   0.1773
B(  4-C ,  8-C ) :  -0.2777 B(  4-C , 11-C ) :   0.1705 B(  4-C , 14-C ) :   0.2041
B(  4-C , 17-C ) :  -0.2144 B(  4-C , 18-C ) :  -0.1683 B(  4-C , 19-C ) :  -0.1195
B(  4-C , 20-C ) :   0.1920 B(  4-C , 21-C ) :  -0.4828 B(  4-C , 22-C ) :   1.9897
B(  4-C , 27-H ) :   1.3619 B(  4-C , 28-H ) :  -0.1241 B(  5-C ,  6-C ) :  -0.3409
B(  5-C ,  7-C ) :   0.1148 B(  5-C ,  8-C ) :   0.2658 B(  5-C ,  9-C ) :  -0.3104
B(  5-C , 10-C ) :   0.2752 B(  5-C , 14-C ) :  -0.3567 B(  5-C , 15-C ) :   0.4031
B(  5-C , 16-C ) :  -0.9751 B(  5-C , 17-C ) :   0.6090 B(  5-C , 19-C ) :   0.3596
B(  5-C , 20-C ) :   0.2889 B(  5-C , 21-C ) :  -0.1494 B(  5-C , 22-C ) :  -1.1629
B(  5-C , 23-C ) :  -0.2465 B(  5-C , 27-H ) :  -0.7249 B(  5-C , 28-H ) :  -0.4763
B(  6-C ,  7-C ) :   0.1599 B(  6-C ,  9-C ) :   0.2379 B(  6-C , 11-C ) :   0.1614
B(  6-C , 19-C ) :   0.1474 B(  6-C , 20-C ) :  -0.2694 B(  6-C , 21-C ) :   0.2107
B(  6-C , 22-C ) :   1.2084 B(  6-C , 27-H ) :  -0.1991 B(  6-C , 28-H ) :   1.2848
B(  7-C ,  8-C ) :  -0.1618 B(  7-C ,  9-C ) :  -2.1075 B(  7-C , 10-C ) :   0.5309
B(  7-C , 11-C ) :   0.2674 B(  7-C , 17-C ) :  -0.2592 B(  7-C , 18-C ) :   0.3038
B(  7-C , 20-C ) :   0.1379 B(  7-C , 21-C ) :   0.9352 B(  7-C , 22-C ) :  -0.3209
B(  7-C , 23-C ) :  -0.4451 B(  7-C , 29-H ) :   1.3335 B(  8-C ,  9-C ) :  -0.6111
B(  8-C , 10-C ) :   1.1064 B(  8-C , 11-C ) :  -1.0840 B(  8-C , 12-C ) :   0.2474
B(  8-C , 14-C ) :  -0.6008 B(  8-C , 15-C ) :   0.4300 B(  8-C , 17-C ) :   1.7951
B(  8-C , 18-C ) :  -1.4052 B(  8-C , 19-C ) :  -0.2840 B(  8-C , 20-C ) :  -0.1991
B(  8-C , 21-C ) :  -0.9355 B(  8-C , 29-H ) :  -0.4849 B(  9-C , 10-C ) :  -0.4382
B(  9-C , 11-C ) :  -0.4081 B(  9-C , 12-C ) :   0.2676 B(  9-C , 14-C ) :  -0.1043
B(  9-C , 15-C ) :  -0.1516 B(  9-C , 16-C ) :   0.2458 B(  9-C , 17-C ) :  -0.1171
B(  9-C , 18-C ) :  -0.1439 B(  9-C , 19-C ) :   0.2620 B(  9-C , 20-C ) :  -0.2552
B(  9-C , 21-C ) :   2.2132 B(  9-C , 22-C ) :   0.4969 B(  9-C , 23-C ) :   0.9132
B(  9-C , 29-H ) :  -0.1838 B(  9-C , 30-H ) :  -0.1310 B( 10-C , 11-C ) :   0.7352
B( 10-C , 12-C ) :  -1.7500 B( 10-C , 13-C ) :   0.4556 B( 10-C , 14-C ) :  -0.1872
B( 10-C , 16-C ) :  -0.1587 B( 10-C , 17-C ) :   0.4086 B( 10-C , 18-C ) :   0.4804
B( 10-C , 19-C ) :  -0.5929 B( 10-C , 20-C ) :  -0.1248 B( 10-C , 21-C ) :  -0.4124
B( 10-C , 22-C ) :  -0.5012 B( 10-C , 23-C ) :  -0.8047 B( 10-C , 30-H ) :  -0.2273
B( 11-C , 12-C ) :  -0.8927 B( 11-C , 13-C ) :   0.4881 B( 11-C , 15-C ) :  -0.1153
B( 11-C , 16-C ) :  -0.2628 B( 11-C , 17-C ) :  -0.2511 B( 11-C , 18-C ) :   0.4636
B( 11-C , 19-C ) :   0.5531 B( 11-C , 20-C ) :   0.7539 B( 11-C , 21-C ) :  -0.7090
B( 11-C , 22-C ) :   0.2553 B( 11-C , 23-C ) :  -0.2566 B( 11-C , 30-H ) :  -0.6734
B( 12-C , 13-C ) :   0.1511 B( 12-C , 15-C ) :   0.4151 B( 12-C , 18-C ) :  -0.1093
B( 12-C , 20-C ) :   1.5803 B( 12-C , 21-C ) :   0.2600 B( 12-C , 30-H ) :   1.4242
B( 13-C , 14-C ) :  -0.3599 B( 13-C , 15-C ) :  -1.5540 B( 13-C , 16-C ) :   0.2138
B( 13-C , 19-C ) :   1.4474 B( 13-C , 20-C ) :  -0.3354 B( 13-C , 21-C ) :  -0.3938
B( 13-C , 31-H ) :   1.4242 B( 14-C , 15-C ) :   0.3298 B( 14-C , 16-C ) :  -0.3105
B( 14-C , 17-C ) :  -1.1113 B( 14-C , 18-C ) :  -0.7584 B( 14-C , 19-C ) :   2.1265
B( 14-C , 20-C ) :   1.4186 B( 14-C , 21-C ) :  -0.1337 B( 14-C , 22-C ) :   0.2321
B( 14-C , 23-C ) :   0.7974 B( 14-C , 31-H ) :  -0.5991 B( 15-C , 16-C ) :  -0.3926
B( 15-C , 17-C ) :   1.1347 B( 15-C , 18-C ) :  -0.9992 B( 15-C , 19-C ) :   0.2416
B( 15-C , 20-C ) :  -0.5217 B( 15-C , 21-C ) :   0.4060 B( 15-C , 22-C ) :  -0.7768
B( 15-C , 23-C ) :  -0.2697 B( 15-C , 31-H ) :  -0.2090 B( 16-C , 17-C ) :  -0.5647
B( 16-C , 18-C ) :   2.4903 B( 16-C , 20-C ) :   0.4902 B( 16-C , 21-C ) :  -0.3372
B( 16-C , 22-C ) :   1.0841 B( 16-C , 23-C ) :   0.4679 B( 16-C , 24-H ) :  -0.2199
B( 17-C , 18-C ) :  -2.2751 B( 17-C , 19-C ) :  -0.3997 B( 17-C , 20-C ) :  -0.7302
B( 17-C , 21-C ) :  -0.7065 B( 17-C , 22-C ) :  -0.5881 B( 17-C , 24-H ) :  -0.5443
B( 18-C , 19-C ) :   3.9109 B( 18-C , 20-C ) :  -0.2502 B( 18-C , 21-C ) :   0.4621
B( 18-C , 22-C ) :   0.4080 B( 18-C , 23-C ) :   3.4071 B( 18-C , 24-H ) :   0.5156
B( 19-C , 20-C ) :   2.5203 B( 19-C , 22-C ) :   0.3791 B( 19-C , 23-C ) :  -1.4208
B( 19-C , 31-H ) :   0.4642 B( 20-C , 21-C ) :   2.4720 B( 20-C , 22-C ) :  -0.5883
B( 20-C , 23-C ) :   1.3792 B( 20-C , 30-H ) :   0.5853 B( 21-C , 22-C ) :   2.5697
B( 21-C , 23-C ) :  -0.3536 B( 21-C , 29-H ) :   0.4565 B( 22-C , 23-C ) :   2.5406
B( 22-C , 27-H ) :   0.6312 B( 22-C , 28-H ) :   0.3489 B( 23-C , 25-H ) :   0.3381
B( 23-C , 26-H ) :   0.7413

-----------------------------------------------------------------------------
         ABSORPTION SPECTRUM VIA TRANSITION ELECTRIC DIPOLE MOMENTS
-----------------------------------------------------------------------------
State   Energy    Wavelength  fosc         T2        TX        TY        TZ
        (cm-1)      (nm)                 (au**2)    (au)      (au)      (au)
-----------------------------------------------------------------------------
   1   22732.8    439.9   0.000018289   0.00026   0.00000  -0.00000  -0.01627
   2   22739.6    439.8   0.000001640   0.00002   0.00000   0.00000   0.00487
   3   23707.1    421.8   0.000760274   0.01056  -0.00000   0.00000   0.10275
   4   23755.5    421.0   0.000000884   0.00001   0.00000  -0.00000  -0.00350
   5   26382.1    379.0   0.001758400   0.02194  -0.07261  -0.12911   0.00000
   6   28166.0    355.0   0.010373442   0.12125  -0.30339   0.17089  -0.00002
   7   32997.0    303.1   0.000000002   0.00000   0.00000   0.00001   0.00013
   8   33092.4    302.2   0.000005148   0.00005   0.00001   0.00000  -0.00716
   9   33615.0    297.5   0.357506929   3.50129   0.91780   1.63062  -0.00001
  10   33721.6    296.5   0.298052525   2.90978  -1.48602   0.83756  -0.00009
  11   34417.9    290.5   0.000239977   0.00230   0.00000   0.00000   0.04791
  12   34516.6    289.7   0.000000032   0.00000  -0.00001  -0.00001   0.00056
  13   35557.6    281.2   0.118557741   1.09767   0.91350  -0.51303   0.00006
  14   35779.6    279.5   0.026884418   0.24737  -0.24663  -0.43190   0.00000
  15   36291.1    275.5   0.124338952   1.12793   0.92468  -0.52239   0.00006
  16   36430.4    274.5   0.087660124   0.79216  -0.43828  -0.77465   0.00000
  17   37118.0    269.4   0.026529144   0.23530   0.42440  -0.23490   0.00002
  18   37458.2    267.0   0.000072373   0.00064   0.00001   0.00003  -0.02522
  19   37462.4    266.9   0.000135763   0.00119   0.00003   0.00002  -0.03454
  20   37625.5    265.8   0.170373040   1.49071   0.59612   1.06553   0.00004
  21   37661.6    265.5   0.002054449   0.01796   0.00019   0.00036  -0.13401
  22   37972.8    263.3   0.000000006   0.00000  -0.00007   0.00003   0.00022
  23   38024.7    263.0   0.126589776   1.09599  -0.91306   0.51216  -0.00006
  24   38421.4    260.3   0.000869300   0.00745  -0.06623  -0.05534  -0.00000
  25   38432.6    260.2   0.012286739   0.10525  -0.27911   0.16536  -0.00002
  26   38698.1    258.4   0.000000003   0.00000  -0.00001   0.00001  -0.00015
  27   38852.7    257.4   0.000096874   0.00082  -0.00001  -0.00001   0.02865
  28   39212.1    255.0   0.000000008   0.00000   0.00000   0.00000   0.00025
  29   39403.1    253.8   0.051860064   0.43329  -0.32161  -0.57433  -0.00001
  30   39416.6    253.7   0.000143943   0.00120   0.00010   0.00016  -0.03467
  31   40078.8    249.5   0.002057249   0.01690   0.11349  -0.06340   0.00001
  32   41253.5    242.4   0.096753554   0.77211  -0.42937  -0.76665   0.00000
  33   41755.5    239.5   0.060067555   0.47359   0.60018  -0.33671   0.00004
  34   41885.9    238.7   0.013506048   0.10615   0.16050   0.28354  -0.00000
  35   42801.1    233.6   0.000309511   0.00238   0.04272  -0.02358   0.00000
  36   42987.6    232.6   0.000072184   0.00055   0.00000   0.00001   0.02351
  37   43316.9    230.9   0.000053535   0.00041   0.01054   0.01720  -0.00000
  38   43717.7    228.7   0.000758027   0.00571   0.00001   0.00001  -0.07555
  39   43771.5    228.5   0.000001691   0.00001  -0.00000  -0.00001   0.00357
  40   44638.5    224.0   0.000000089   0.00000   0.00000  -0.00000   0.00081
  41   45183.0    221.3   0.006562943   0.04782  -0.18361   0.11877  -0.00001
  42   45186.7    221.3   0.015559039   0.11336   0.17195   0.28946  -0.00000
  43   45492.9    219.8   0.008762961   0.06341  -0.12287  -0.21981   0.00000
  44   46514.7    215.0   0.000007977   0.00006  -0.00000   0.00000   0.00751
  45   46677.6    214.2   0.000738717   0.00521  -0.00000   0.00001   0.07218
  46   47018.4    212.7   0.002557252   0.01791   0.00001  -0.00001  -0.13381
  47   47251.6    211.6   0.000227027   0.00158   0.00001  -0.00000  -0.03977
  48   47258.0    211.6   0.000000767   0.00001  -0.00000  -0.00000  -0.00231
  49   47371.7    211.1   0.000000000   0.00000  -0.00000  -0.00000   0.00004
  50   47645.3    209.9   0.004833316   0.03340  -0.08894  -0.15964   0.00000
  51   47708.9    209.6   0.009086510   0.06270  -0.21905   0.12131  -0.00001
  52   48156.0    207.7   0.000396134   0.00271   0.00002  -0.00000  -0.05204
  53   48245.4    207.3   0.000000284   0.00000   0.00002  -0.00002   0.00139
  54   48333.1    206.9   0.047628931   0.32442  -0.49526   0.28130  -0.00003
  55   48516.4    206.1   0.000000107   0.00000  -0.00002   0.00004  -0.00085
  56   48606.6    205.7   0.000000000   0.00000  -0.00000  -0.00000   0.00000
  57   48606.6    205.7   0.000000000   0.00000   0.00000  -0.00000  -0.00000
  58   48606.6    205.7   0.000000000   0.00000  -0.00000  -0.00000   0.00000
  59   48606.6    205.7   0.000000000   0.00000   0.00000   0.00000  -0.00000
  60   48606.6    205.7   0.000000000   0.00000   0.00000   0.00000  -0.00000
  61   48723.1    205.2   0.000135598   0.00092  -0.00002  -0.00001  -0.03027
  62   48788.1    205.0   0.003480532   0.02349  -0.00000   0.00001   0.15325
  63   49100.1    203.7   0.000000000   0.00000  -0.00000  -0.00000   0.00000
  64   49100.1    203.7   0.000000000   0.00000  -0.00000  -0.00000  -0.00000
  65   49100.1    203.7   0.000000000   0.00000  -0.00000  -0.00000  -0.00000
  66   49100.1    203.7   0.000000000   0.00000   0.00000  -0.00000   0.00000
  67   49100.1    203.7   0.000000000   0.00000   0.00000  -0.00000  -0.00000
  68   49442.1    202.3   0.000002626   0.00002   0.00001   0.00003  -0.00418
  69   49598.8    201.6   0.004613796   0.03062   0.00011  -0.00005   0.17500
  70   49656.7    201.4   0.046248078   0.30661   0.48418  -0.26868  -0.00000
  71   50112.4    199.6   0.000003645   0.00002   0.00006   0.00007  -0.00489
  72   50337.6    198.7   0.187773677   1.22806   0.98240  -0.51277   0.00006
  73   50356.0    198.6   0.171958103   1.12421  -0.48889  -0.94085   0.00000
  74   50413.9    198.4   0.000000009   0.00000   0.00004   0.00010   0.00022
  75   50760.4    197.0   0.003080806   0.01998  -0.00001   0.00001   0.14135
  76   50815.5    196.8   0.034383422   0.22276  -0.22919  -0.41259   0.00001
  77   51398.2    194.6   0.011106078   0.07114   0.23217  -0.13128   0.00002
  78   51709.0    193.4   0.000464212   0.00296  -0.00007  -0.00010  -0.05436
  79   51766.9    193.2   0.000000026   0.00000   0.00009   0.00018  -0.00035
  80   51821.7    193.0   0.392988867   2.49657  -0.77507  -1.37690   0.00001
  81   51836.6    192.9   0.000002123   0.00001   0.00031   0.00061  -0.00361
  82   52122.0    191.9   0.196897407   1.24364  -0.96213   0.56387  -0.00006
  83   52132.6    191.8   0.000084637   0.00053   0.00009  -0.00005  -0.02312
  84   52241.3    191.4   0.000000196   0.00000   0.00002   0.00004   0.00111
  85   52293.5    191.2   0.000757430   0.00477  -0.00007  -0.00016   0.06905
  86   52321.7    191.1   0.190739206   1.20015   0.54259   0.95171   0.00001
  87   52681.9    189.8   0.102206542   0.63869   0.69712  -0.39079   0.00004
  88   52740.5    189.6   0.000071880   0.00045  -0.00006   0.00002  -0.02118
  89   52927.9    188.9   0.049766118   0.30955  -0.48474   0.27308  -0.00003
  90   53147.3    188.2   0.002952070   0.01829  -0.06887  -0.11637   0.00001
  91   53203.4    188.0   0.000002086   0.00001   0.00001   0.00000  -0.00359
  92   53303.2    187.6   0.000000000   0.00000   0.00002  -0.00001  -0.00003
  93   53362.0    187.4   0.028228694   0.17415  -0.20323  -0.36449  -0.00000
  94   53839.8    185.7   0.000000001   0.00000  -0.00003  -0.00008   0.00004
  95   54000.0    185.2   0.364078040   2.21961  -0.72898  -1.29931   0.00004
  96   54105.3    184.8   0.000002440   0.00001   0.00323  -0.00121  -0.00172
  97   54112.6    184.8   0.072690667   0.44224   0.57125  -0.34046   0.00007
  98   54277.8    184.2   0.000001200   0.00001   0.00051  -0.00011  -0.00265
  99   54364.9    183.9   0.000740735   0.00449  -0.05477  -0.03853   0.00123
 100   54465.1    183.6   0.000569210   0.00344   0.05715  -0.01318  -0.00070
 101   54467.6    183.6   0.000031878   0.00019  -0.00277  -0.00055  -0.01359
 102   54532.7    183.4   0.006017164   0.03633  -0.00084  -0.00152   0.19058
 103   54536.3    183.4   0.061151238   0.36914   0.28613   0.53598   0.00075
 104   54609.3    183.1   0.002110166   0.01272   0.00069   0.00061   0.11278
 105   54715.7    182.8   0.000049754   0.00030  -0.00580  -0.01012  -0.01278
 106   54725.1    182.7   0.339282459   2.04104  -0.69662  -1.24730   0.00020
 107   54818.0    182.4   0.000317305   0.00191   0.00001   0.00006   0.04365
 108   54849.1    182.3   0.002916732   0.01751  -0.12513   0.04300   0.00002
 109   54982.9    181.9   0.022128942   0.13250  -0.17110  -0.32128  -0.00000
 110   55116.1    181.4   0.000000191   0.00000  -0.00013   0.00011   0.00105
 111   55160.1    181.3   0.164887630   0.98410   0.88016  -0.45762   0.00005
 112   55449.5    180.3   0.435349988   2.58474   0.76336   1.41493  -0.00001
 113   55791.3    179.2   0.044523726   0.26272   0.43470  -0.27159   0.00013
 114   55876.7    179.0   0.153195697   0.90259  -0.94708  -0.07501  -0.00004
 115   55881.0    179.0   0.549436892   3.23690  -1.45237   1.06185  -0.00008
 116   55986.0    178.6   0.000170383   0.00100   0.02450  -0.02004   0.00000
 117   55995.1    178.6   0.000349522   0.00205   0.00011  -0.00022  -0.04533
 118   56330.2    177.5   0.000001031   0.00001   0.00004   0.00004   0.00245
 119   56729.1    176.3   0.002778113   0.01612  -0.06042  -0.11167   0.00001
 120   56780.0    176.1   0.000266595   0.00155  -0.00001   0.00001   0.03932
 121   56795.0    176.1   0.012978650   0.07523   0.00011  -0.00003  -0.27428
 122   56869.9    175.8   0.180582495   1.04537   0.89317  -0.49761   0.00007
 123   57011.5    175.4   0.002435427   0.01406  -0.00001  -0.00003   0.11859
 124   57264.2    174.6   0.000005917   0.00003   0.00001  -0.00005  -0.00583
 125   57281.1    174.6   0.008705511   0.05003   0.11775   0.19018   0.00000
 126   57321.2    174.5   0.000411758   0.00236  -0.00003  -0.00011   0.04863
 127   57335.8    174.4   0.000066532   0.00038   0.00048  -0.00013   0.01954
 128   57355.0    174.4   0.050260747   0.28849  -0.46707   0.26521  -0.00003
 129   57455.4    174.0   0.005348779   0.03065  -0.00001   0.00010   0.17507
 130   57530.3    173.8   0.000023349   0.00013   0.00003   0.00000   0.01156
 131   57725.2    173.2   0.000000004   0.00000   0.00000   0.00006   0.00014
 132   57770.9    173.1   0.014703194   0.08379  -0.14397  -0.25112   0.00000
 133   58211.8    171.8   0.571435964   3.23171  -1.57082   0.87421  -0.00010
 134   58405.4    171.2   0.739541602   4.16855   0.99872   1.78076  -0.00002
 135   58421.0    171.2   0.000000578   0.00000  -0.00085  -0.00159   0.00008
 136   58679.6    170.4   0.000289914   0.00163  -0.00044  -0.00017  -0.04033
 137   58758.5    170.2   0.003185215   0.01785  -0.00008   0.00004   0.13359
 138   58807.9    170.0   0.000000000   0.00000   0.00000   0.00000   0.00000
 139   58807.9    170.0   0.000000000   0.00000  -0.00000   0.00000  -0.00000
 140   58807.9    170.0   0.000000000   0.00000   0.00000  -0.00000   0.00000
 141   58807.9    170.0   0.000000000   0.00000   0.00000  -0.00000  -0.00000
 142   58807.9    170.0   0.000000000   0.00000  -0.00000   0.00000  -0.00000
 143   58919.3    169.7   0.347084566   1.93934   1.21518  -0.68021   0.00007
 144   59064.1    169.3   0.000040147   0.00022   0.00002   0.00014  -0.01496
 145   59172.1    169.0   0.001700947   0.00946  -0.00002  -0.00004  -0.09728
 146   59213.0    168.9   0.000000000   0.00000   0.00000   0.00000   0.00000
 147   59213.0    168.9   0.000000000   0.00000   0.00000   0.00000   0.00000
 148   59213.0    168.9   0.000000000   0.00000  -0.00000  -0.00000   0.00000
 149   59213.0    168.9   0.000000000   0.00000  -0.00000  -0.00000  -0.00000
 150   59213.0    168.9   0.000000000   0.00000   0.00000   0.00000   0.00000
 151   59240.2    168.8   0.000006137   0.00003  -0.00015   0.00003  -0.00584
 152   59272.2    168.7   0.062167715   0.34529   0.51281  -0.28692   0.00002
 153   59674.9    167.6   0.026260799   0.14487  -0.18425  -0.33306   0.00004
 154   59687.8    167.5   0.000359225   0.00198  -0.00013  -0.00025  -0.04451
 155   59920.4    166.9   0.000006113   0.00003   0.00007  -0.00006  -0.00579
 156   59982.7    166.7   0.002127148   0.01167   0.09942   0.04231  -0.00002
 157   60071.8    166.5   0.091645569   0.50225   0.61422  -0.35353   0.00005
 158   60390.3    165.6   0.001959408   0.01068  -0.00003   0.00003   0.10335
 159   60491.0    165.3   0.008133844   0.04427  -0.07102  -0.19805   0.00002
 160   60544.4    165.2   0.018274821   0.09937   0.27481  -0.15443   0.00003
 161   60556.6    165.1   0.000058767   0.00032  -0.00009   0.00009   0.01787
 162   60650.2    164.9   0.270760023   1.46970  -0.58500  -1.06183   0.00000
 163   60701.5    164.7   0.087803358   0.47620   0.60943  -0.32372   0.00003
 164   60854.9    164.3   0.000000570   0.00000  -0.00006   0.00005  -0.00175
 165   60898.4    164.2   0.000381130   0.00206  -0.00001  -0.00004  -0.04539
 166   60981.1    164.0   0.155761516   0.84089   0.63957  -0.65715   0.00000
 167   60984.7    164.0   0.360897294   1.94822   1.29205  -0.52803   0.00009
 168   61062.4    163.8   0.000000975   0.00001  -0.00005   0.00012  -0.00229
 169   61093.5    163.7   0.000000000   0.00000   0.00000  -0.00000   0.00000
 170   61093.5    163.7   0.000000000   0.00000   0.00000  -0.00000  -0.00000
 171   61093.5    163.7   0.000000000   0.00000  -0.00000   0.00000   0.00000
 172   61093.5    163.7   0.000000000   0.00000   0.00000   0.00000   0.00000
 173   61093.5    163.7   0.000000000   0.00000   0.00000  -0.00000   0.00000
 174   61118.8    163.6   0.124628744   0.67130  -0.40380  -0.71292   0.00004
 175   61297.9    163.1   0.000021665   0.00012  -0.00000   0.00004   0.01079
 176   61417.8    162.8   0.002444332   0.01310  -0.10192   0.05210   0.00001
 177   61457.8    162.7   0.000000000   0.00000  -0.00000   0.00000   0.00000
 178   61457.8    162.7   0.000000000   0.00000   0.00000  -0.00000   0.00000
 179   61457.8    162.7   0.000000000   0.00000   0.00000  -0.00000  -0.00000
 180   61457.8    162.7   0.000000000   0.00000   0.00000  -0.00000  -0.00000
 181   61457.8    162.7   0.000000000   0.00000  -0.00000   0.00000   0.00000
 182   61482.4    162.6   0.004981601   0.02667   0.13984  -0.08438   0.00037
 183   61482.6    162.6   0.000058782   0.00031   0.00279  -0.00172  -0.01744
 184   61725.1    162.0   0.071928417   0.38363  -0.53725   0.30822  -0.00009
 185   61753.9    161.9   0.014435859   0.07696   0.00003  -0.00017  -0.27741
 186   61776.0    161.9   0.000477653   0.00255   0.00005  -0.00011   0.05045
 187   61899.5    161.6   0.299280497   1.59172  -0.61987  -1.09886   0.00002
 188   62030.4    161.2   0.026687083   0.14164  -0.18750  -0.32631   0.00037
 189   62036.2    161.2   0.001465415   0.00778   0.00064   0.00115   0.08818
 190   62147.9    160.9   0.000007568   0.00004   0.00001   0.00004  -0.00633
 191   62197.8    160.8   0.006263732   0.03315  -0.08964  -0.15849  -0.00003
 192   62502.8    160.0   0.000710732   0.00374   0.00002   0.00005   0.06118
 193   62600.3    159.7   0.044894410   0.23610   0.22203   0.43221  -0.00000
 194   62611.7    159.7   0.000002756   0.00001   0.00001   0.00012  -0.00380
 195   62681.0    159.5   0.000000927   0.00000   0.00011   0.00001  -0.00220
 196   62701.1    159.5   0.278729480   1.46347  -1.06024   0.58254  -0.00005

Dispersion correction           -0.099443893
FINAL SINGLE POINT ENERGY      -918.864949816514

DIPOLE MOMENT
-------------
                                X             Y             Z
Electronic contribution:      3.69621       6.59036      -0.00004
Nuclear contribution   :     -4.13037      -7.36454       0.00004
                        -----------------------------------------
Total Dipole Moment    :     -0.43416      -0.77419       0.00000
                        -----------------------------------------
Magnitude (a.u.)       :      0.88762
Magnitude (Debye)      :      2.25614

Rotational constants in cm-1:     0.011867     0.011247     0.005774
Rotational constants in MHz :   355.752167   337.185408   173.110023

                             ****ORCA TERMINATED NORMALLY****
TOTAL RUN TIME: 0 days 6 hours 59 minutes 18 seconds 117 msec
