                         Program Version 5.0.4 -  RELEASE  -
|  1> !M062X DEF2-TZVP OPT FREQ
|  2>
|  3> %maxcore 3000
|  4> %pal
|  5> nprocs 5
|  6> end
|  7>
|  8> %freq
|  9> Temp 298.15,10,20,50,100,6000,8000,10000
| 10> end
| 11>
| 12>
| 13> * xyz 0 2
| 14>   C   2.45025911436908     -2.79090177790463     -0.00000982964919
| 15>   C   1.27956958510907     -3.48660258649203     -0.00004173389427
| 16>   C   0.03020658595300     -2.81550364249800     -0.00011862088441
| 17>   C   -1.20107819729747     -3.52526706874898     -0.00015240048714
| 18>   C   -2.38858789470557     -2.86502728739536     -0.00022482001470
| 19>   C   -2.44105509445554     -1.44398386157020     -0.00026954248287
| 20>   C   -3.67663052786843     -0.75322560258363     -0.00034505741295
| 21>   C   -3.72620674307354      0.61012331224561     -0.00038725318909
| 22>   C   -2.53312282987023      1.35934632798929     -0.00035605272073
| 23>   C   -2.34753337498203      2.75391254959518     -0.00038934949593
| 24>   C   -1.29670155377861      3.37861761727772     -0.00036267557578
| 25>   C   0.01685582404701      2.87468391601134     -0.00029170556996
| 26>   C   1.24552120765708      3.56426857632077     -0.00025954932536
| 27>   C   2.41910897755889      2.86883891663109     -0.00018686269248
| 28>   C   2.43513201634147      1.45348005475609     -0.00014272162428
| 29>   C   3.65821453508405      0.72792377916697     -0.00006423037791
| 30>   C   3.67026889114169     -0.63084151991298     -0.00002152358643
| 31>   C   2.45819623267264     -1.37288294365309     -0.00005292192897
| 32>   C   1.23136494255913     -0.68205099072942     -0.00012978920390
| 33>   C   1.21552338299244      0.74291881045426     -0.00017515439035
| 34>   C   -0.02157562885261      1.44516062565708     -0.00024971485033
| 35>   C   -1.25909575897147      0.70970393432854     -0.00028207962759
| 36>   C   -1.23391475435778     -0.71245727770562     -0.00023706797792
| 37>   C   0.01012694395947     -1.40778803226763     -0.00016249723364
| 38>   H   3.39883583341171     -3.31417365841427      0.00004947598548
| 39>   H   1.28571717640132     -4.56990075715492     -0.00000797167050
| 40>   H   -1.17451584360617     -4.60820675048880     -0.00011872516592
| 41>   H   -3.32207671532680     -3.41465497856564     -0.00025023814909
| 42>   H   -4.59253679048289     -1.33153116975716     -0.00036952032608
| 43>   H   -4.67219071827069      1.13379875695350     -0.00044562775965
| 44>   H   1.23798091724791      4.64550021059141     -0.00029268019975
| 45>   H   3.36490179443101      3.39691648656407     -0.00016139178048
| 46>   H   4.58720556626417      1.28510572107642     -0.00003933255885
| 47> **                         ****END OF INPUT****
 Total Charge           Charge          ....    0
 Multiplicity           Mult            ....    2
 Number of Electrons    NEL             ....  153
FINAL SINGLE POINT ENERGY      -919.831203866905
FINAL SINGLE POINT ENERGY      -919.832871163495
FINAL SINGLE POINT ENERGY      -919.833504328033
FINAL SINGLE POINT ENERGY      -919.833514984606
FINAL SINGLE POINT ENERGY      -919.833516476667
                    ***********************HURRAY********************

CARTESIAN COORDINATES (ANGSTROEM)
---------------------------------
  C      2.453279   -2.804457   -0.000009
  C      1.277450   -3.492561   -0.000042
  C      0.030526   -2.817699   -0.000121
  C     -1.201220   -3.525932   -0.000151
  C     -2.388810   -2.864841   -0.000230
  C     -2.440669   -1.443985   -0.000271
  C     -3.675934   -0.754077   -0.000344
  C     -3.724442    0.609871   -0.000386
  C     -2.530585    1.357829   -0.000355
  C     -2.345973    2.752427   -0.000390
  C     -1.295652    3.377805   -0.000363
  C      0.017686    2.873914   -0.000291
  C      1.243381    3.565872   -0.000259
  C      2.420302    2.874802   -0.000187
  C      2.438663    1.460921   -0.000143
  C      3.673543    0.738691   -0.000064
  C      3.618307   -0.601369   -0.000025
  C      2.455914   -1.387618   -0.000051
  C      1.230347   -0.683881   -0.000127
  C      1.220670    0.743449   -0.000178
  C     -0.017729    1.443957   -0.000247
  C     -1.256413    0.708697   -0.000282
  C     -1.233074   -0.713177   -0.000235
  C      0.009979   -1.409434   -0.000164
  H      3.401961   -3.325310    0.000053
  H      1.278959   -4.575933   -0.000006
  H     -1.175996   -4.608970   -0.000119
  H     -3.322100   -3.415116   -0.000254
  H     -4.591682   -1.332984   -0.000367
  H     -4.669352    1.135841   -0.000443
  H      1.233151    4.647284   -0.000296
  H      3.364302    3.405976   -0.000161
  H      4.609377    1.285310   -0.000041

 Multiplicity           Mult            ....    2
 Number of Electrons    NEL             ....  153
 Basis Dimension        Dim             ....  798

ORBITAL ENERGIES
----------------
                 SPIN UP ORBITALS
  NO   OCC          E(Eh)            E(eV)
   0   1.0000     -10.586032      -288.0606
   1   1.0000     -10.585187      -288.0376
   2   1.0000     -10.576552      -287.8026
   3   1.0000     -10.572891      -287.7030
   4   1.0000     -10.572013      -287.6791
   5   1.0000     -10.569252      -287.6040
   6   1.0000     -10.569029      -287.5979
   7   1.0000     -10.568292      -287.5779
   8   1.0000     -10.567304      -287.5510
   9   1.0000     -10.567074      -287.5447
  10   1.0000     -10.564876      -287.4849
  11   1.0000     -10.563729      -287.4537
  12   1.0000     -10.563595      -287.4500
  13   1.0000     -10.557228      -287.2768
  14   1.0000     -10.557014      -287.2709
  15   1.0000     -10.556915      -287.2683
  16   1.0000     -10.556207      -287.2490
  17   1.0000     -10.556021      -287.2439
  18   1.0000     -10.555727      -287.2359
  19   1.0000     -10.554832      -287.2116
  20   1.0000     -10.554677      -287.2074
  21   1.0000     -10.553623      -287.1787
  22   1.0000     -10.550625      -287.0971
  23   1.0000     -10.548153      -287.0298
  24   1.0000      -1.030218       -28.0337
  25   1.0000      -0.993069       -27.0228
  26   1.0000      -0.990761       -26.9600
  27   1.0000      -0.941299       -25.6140
  28   1.0000      -0.940393       -25.5894
  29   1.0000      -0.918586       -24.9960
  30   1.0000      -0.890139       -24.2219
  31   1.0000      -0.870817       -23.6961
  32   1.0000      -0.852791       -23.2056
  33   1.0000      -0.845540       -23.0083
  34   1.0000      -0.818983       -22.2857
  35   1.0000      -0.816022       -22.2051
  36   1.0000      -0.733640       -19.9634
  37   1.0000      -0.733400       -19.9568
  38   1.0000      -0.731022       -19.8921
  39   1.0000      -0.717052       -19.5120
  40   1.0000      -0.709710       -19.3122
  41   1.0000      -0.655933       -17.8489
  42   1.0000      -0.638041       -17.3620
  43   1.0000      -0.620122       -16.8744
  44   1.0000      -0.619204       -16.8494
  45   1.0000      -0.604537       -16.4503
  46   1.0000      -0.599975       -16.3262
  47   1.0000      -0.557049       -15.1581
  48   1.0000      -0.550425       -14.9778
  49   1.0000      -0.543223       -14.7818
  50   1.0000      -0.531168       -14.4538
  51   1.0000      -0.526753       -14.3337
  52   1.0000      -0.519279       -14.1303
  53   1.0000      -0.515673       -14.0322
  54   1.0000      -0.504008       -13.7147
  55   1.0000      -0.497952       -13.5500
  56   1.0000      -0.484623       -13.1872
  57   1.0000      -0.479382       -13.0446
  58   1.0000      -0.475564       -12.9407
  59   1.0000      -0.471923       -12.8417
  60   1.0000      -0.456536       -12.4230
  61   1.0000      -0.450543       -12.2599
  62   1.0000      -0.443643       -12.0721
  63   1.0000      -0.436970       -11.8905
  64   1.0000      -0.413043       -11.2395
  65   1.0000      -0.412558       -11.2263
  66   1.0000      -0.406169       -11.0524
  67   1.0000      -0.392251       -10.6737
  68   1.0000      -0.392021       -10.6674
  69   1.0000      -0.345679        -9.4064
  70   1.0000      -0.334867        -9.1122
  71   1.0000      -0.328572        -8.9409
  72   1.0000      -0.318795        -8.6749
  73   1.0000      -0.316441        -8.6108
  74   1.0000      -0.312461        -8.5025
  75   1.0000      -0.263903        -7.1812
  76   1.0000      -0.259852        -7.0709
  77   0.0000      -0.048189        -1.3113
  78   0.0000      -0.041108        -1.1186
  79   0.0000      -0.037821        -1.0292
  80   0.0000      -0.002725        -0.0741
  81   0.0000       0.004416         0.1202

                 SPIN DOWN ORBITALS
  NO   OCC          E(Eh)            E(eV)
   0   1.0000     -10.585992      -288.0595
   1   1.0000     -10.585300      -288.0407
   2   1.0000     -10.572831      -287.7014
   3   1.0000     -10.572033      -287.6796
   4   1.0000     -10.568694      -287.5888
   5   1.0000     -10.568422      -287.5814
   6   1.0000     -10.567986      -287.5695
   7   1.0000     -10.567363      -287.5526
   8   1.0000     -10.567011      -287.5430
   9   1.0000     -10.566621      -287.5324
  10   1.0000     -10.564809      -287.4831
  11   1.0000     -10.563672      -287.4521
  12   1.0000     -10.563622      -287.4508
  13   1.0000     -10.557529      -287.2850
  14   1.0000     -10.557001      -287.2706
  15   1.0000     -10.556897      -287.2678
  16   1.0000     -10.555963      -287.2424
  17   1.0000     -10.555883      -287.2402
  18   1.0000     -10.555744      -287.2364
  19   1.0000     -10.554812      -287.2110
  20   1.0000     -10.554691      -287.2078
  21   1.0000     -10.553644      -287.1793
  22   1.0000     -10.550631      -287.0973
  23   1.0000     -10.548164      -287.0301
  24   1.0000      -1.029050       -28.0019
  25   1.0000      -0.990939       -26.9648
  26   1.0000      -0.989154       -26.9162
  27   1.0000      -0.940095       -25.5813
  28   1.0000      -0.936849       -25.4930
  29   1.0000      -0.916682       -24.9442
  30   1.0000      -0.886680       -24.1278
  31   1.0000      -0.868839       -23.6423
  32   1.0000      -0.850819       -23.1520
  33   1.0000      -0.844039       -22.9675
  34   1.0000      -0.817684       -22.2503
  35   1.0000      -0.810218       -22.0472
  36   1.0000      -0.732976       -19.9453
  37   1.0000      -0.732403       -19.9297
  38   1.0000      -0.728493       -19.8233
  39   1.0000      -0.716832       -19.5060
  40   1.0000      -0.700435       -19.0598
  41   1.0000      -0.654704       -17.8154
  42   1.0000      -0.635610       -17.2958
  43   1.0000      -0.618525       -16.8309
  44   1.0000      -0.617402       -16.8004
  45   1.0000      -0.600140       -16.3306
  46   1.0000      -0.595053       -16.1922
  47   1.0000      -0.556042       -15.1307
  48   1.0000      -0.545858       -14.8535
  49   1.0000      -0.541571       -14.7369
  50   1.0000      -0.529250       -14.4016
  51   1.0000      -0.520435       -14.1617
  52   1.0000      -0.518486       -14.1087
  53   1.0000      -0.514605       -14.0031
  54   1.0000      -0.502497       -13.6736
  55   1.0000      -0.496642       -13.5143
  56   1.0000      -0.484415       -13.1816
  57   1.0000      -0.475337       -12.9346
  58   1.0000      -0.473688       -12.8897
  59   1.0000      -0.470806       -12.8113
  60   1.0000      -0.451795       -12.2940
  61   1.0000      -0.449927       -12.2431
  62   1.0000      -0.441037       -12.0012
  63   1.0000      -0.434396       -11.8205
  64   1.0000      -0.412696       -11.2300
  65   1.0000      -0.408794       -11.1239
  66   1.0000      -0.399163       -10.8618
  67   1.0000      -0.390926       -10.6376
  68   1.0000      -0.390428       -10.6241
  69   1.0000      -0.342898        -9.3307
  70   1.0000      -0.333806        -9.0833
  71   1.0000      -0.328615        -8.9421
  72   1.0000      -0.317473        -8.6389
  73   1.0000      -0.314981        -8.5711
  74   1.0000      -0.261193        -7.1074
  75   1.0000      -0.258366        -7.0305
  76   0.0000      -0.063887        -1.7385
  77   0.0000      -0.048212        -1.3119
  78   0.0000      -0.037905        -1.0314
  79   0.0000      -0.037553        -1.0219
  80   0.0000      -0.002117        -0.0576

MULLIKEN ATOMIC CHARGES AND SPIN POPULATIONS
--------------------------------------------
   0 C :   -0.235138   -0.013034
   1 C :   -0.162353   -0.017335
   2 C :    0.092570    0.008038
   3 C :   -0.187060   -0.005467
   4 C :   -0.186809    0.005224
   5 C :    0.092708   -0.004684
   6 C :   -0.153400    0.004384
   7 C :   -0.230880   -0.004379
   8 C :    0.086566    0.004482
   9 C :   -0.066954   -0.010577
  10 C :   -0.062352    0.007954
  11 C :    0.089315   -0.014119
  12 C :   -0.237004    0.010682
  13 C :   -0.150263   -0.012226
  14 C :    0.148569    0.066403
  15 C :   -0.334936   -0.114177
  16 C :    0.220106    1.031362
  17 C :   -0.063763   -0.009428
  18 C :    0.041280    0.058960
  19 C :    0.006202   -0.027264
  20 C :   -0.032676    0.013403
  21 C :   -0.030367   -0.004118
  22 C :    0.058892    0.004719
  23 C :    0.047779   -0.008402
  24 H :    0.141670    0.010461
  25 H :    0.136086    0.000558
  26 H :    0.135587    0.000091
  27 H :    0.136347   -0.000135
  28 H :    0.136482   -0.000067
  29 H :    0.147048    0.000063
  30 H :    0.145915    0.000458
  31 H :    0.138195    0.000546
  32 H :    0.132638    0.017624
Sum of atomic charges         :   -0.0000000

LOEWDIN ATOMIC CHARGES AND SPIN POPULATIONS
-------------------------------------------
   0 C :   -0.093605    0.016163
   1 C :   -0.096104   -0.007261
   2 C :   -0.090804    0.003213
   3 C :   -0.099028   -0.002521
   4 C :   -0.097310    0.002782
   5 C :   -0.092527   -0.001887
   6 C :   -0.093366    0.002063
   7 C :   -0.098240   -0.002227
   8 C :   -0.094322    0.001483
   9 C :    0.013683   -0.006638
  10 C :    0.013816    0.002488
  11 C :   -0.096271   -0.008203
  12 C :   -0.097330    0.005392
  13 C :   -0.095695   -0.003003
  14 C :   -0.086419    0.033386
  15 C :   -0.120694    0.052628
  16 C :    0.058947    0.796416
  17 C :   -0.113071    0.079852
  18 C :    0.000022    0.028734
  19 C :   -0.006179   -0.013768
  20 C :    0.011315    0.001941
  21 C :    0.010800   -0.001852
  22 C :   -0.004550    0.002667
  23 C :   -0.005758    0.003709
  24 H :    0.152977    0.001100
  25 H :    0.151324    0.000037
  26 H :    0.150907    0.000003
  27 H :    0.151115   -0.000011
  28 H :    0.151834    0.000029
  29 H :    0.153731    0.000008
  30 H :    0.154019    0.000412
  31 H :    0.152005    0.000083
  32 H :    0.154778    0.012781

  Mayer bond orders larger than 0.100000
B(  0-C ,  1-C ) :   1.5978 B(  0-C , 17-C ) :   1.2462 B(  0-C , 24-H ) :   0.9549
B(  1-C ,  2-C ) :   1.2424 B(  1-C , 25-H ) :   0.9342 B(  2-C ,  3-C ) :   1.2288
B(  2-C , 23-C ) :   1.3118 B(  3-C ,  4-C ) :   1.6554 B(  3-C , 26-H ) :   0.9332
B(  4-C ,  5-C ) :   1.2292 B(  4-C , 27-H ) :   0.9315 B(  5-C ,  6-C ) :   1.2587
B(  5-C , 22-C ) :   1.2933 B(  6-C ,  7-C ) :   1.5789 B(  6-C , 28-H ) :   0.9371
B(  7-C ,  8-C ) :   1.2848 B(  7-C , 29-H ) :   0.9469 B(  8-C ,  9-C ) :   1.1545
B(  8-C , 21-C ) :   1.2981 B(  9-C , 10-C ) :   2.5434 B( 10-C , 11-C ) :   1.1524
B( 11-C , 12-C ) :   1.2780 B( 11-C , 20-C ) :   1.2947 B( 12-C , 13-C ) :   1.5759
B( 12-C , 30-H ) :   0.9524 B( 13-C , 14-C ) :   1.2517 B( 13-C , 31-H ) :   0.9409
B( 14-C , 15-C ) :   1.1140 B( 14-C , 19-C ) :   1.2728 B( 15-C , 16-C ) :   1.7544
B( 15-C , 32-H ) :   0.9602 B( 16-C , 17-C ) :   1.3457 B( 17-C , 18-C ) :   1.2960
B( 18-C , 19-C ) :   1.1596 B( 18-C , 23-C ) :   1.1800 B( 19-C , 20-C ) :   1.1588
B( 20-C , 21-C ) :   1.2324 B( 21-C , 22-C ) :   1.1606 B( 22-C , 23-C ) :   1.1562

FINAL SINGLE POINT ENERGY      -919.833516540618

DIPOLE MOMENT
-------------
                                X             Y             Z
Electronic contribution:     -0.03768       5.52732      -0.00017
Nuclear contribution   :      0.12396      -6.17345       0.00019
                        -----------------------------------------
Total Dipole Moment    :      0.08628      -0.64613       0.00002
                        -----------------------------------------
Magnitude (a.u.)       :      0.65187
Magnitude (Debye)      :      1.65691

VIBRATIONAL FREQUENCIES
-----------------------

Scaling factor for frequencies =  1.000000000  (already applied!)

   0:         0.00 cm**-1
   1:         0.00 cm**-1
   2:         0.00 cm**-1
   3:         0.00 cm**-1
   4:         0.00 cm**-1
   5:         0.00 cm**-1
   6:        87.44 cm**-1
   7:        89.22 cm**-1
   8:       128.71 cm**-1
   9:       170.47 cm**-1
  10:       227.54 cm**-1
  11:       295.92 cm**-1
  12:       301.17 cm**-1
  13:       308.44 cm**-1
  14:       336.98 cm**-1
  15:       360.27 cm**-1
  16:       367.04 cm**-1
  17:       389.74 cm**-1
  18:       395.00 cm**-1
  19:       447.39 cm**-1
  20:       455.62 cm**-1
  21:       458.43 cm**-1
  22:       475.69 cm**-1
  23:       496.93 cm**-1
  24:       504.14 cm**-1
  25:       506.89 cm**-1
  26:       512.29 cm**-1
  27:       545.28 cm**-1
  28:       559.27 cm**-1
  29:       584.25 cm**-1
  30:       591.99 cm**-1
  31:       645.92 cm**-1
  32:       654.08 cm**-1
  33:       676.57 cm**-1
  34:       683.87 cm**-1
  35:       687.94 cm**-1
  36:       698.97 cm**-1
  37:       744.17 cm**-1
  38:       773.39 cm**-1
  39:       795.44 cm**-1
  40:       814.05 cm**-1
  41:       836.06 cm**-1
  42:       837.87 cm**-1
  43:       839.04 cm**-1
  44:       841.32 cm**-1
  45:       862.59 cm**-1
  46:       882.44 cm**-1
  47:       893.49 cm**-1
  48:       911.35 cm**-1
  49:       951.90 cm**-1
  50:       984.88 cm**-1
  51:       992.26 cm**-1
  52:       995.03 cm**-1
  53:      1001.63 cm**-1
  54:      1003.33 cm**-1
  55:      1017.06 cm**-1
  56:      1051.91 cm**-1
  57:      1146.70 cm**-1
  58:      1148.30 cm**-1
  59:      1165.04 cm**-1
  60:      1173.80 cm**-1
  61:      1201.68 cm**-1
  62:      1214.46 cm**-1
  63:      1227.09 cm**-1
  64:      1249.38 cm**-1
  65:      1252.47 cm**-1
  66:      1255.82 cm**-1
  67:      1297.56 cm**-1
  68:      1308.94 cm**-1
  69:      1345.90 cm**-1
  70:      1365.45 cm**-1
  71:      1380.08 cm**-1
  72:      1405.51 cm**-1
  73:      1414.51 cm**-1
  74:      1426.32 cm**-1
  75:      1442.13 cm**-1
  76:      1456.69 cm**-1
  77:      1476.62 cm**-1
  78:      1479.26 cm**-1
  79:      1496.09 cm**-1
  80:      1550.85 cm**-1
  81:      1557.28 cm**-1
  82:      1573.51 cm**-1
  83:      1594.13 cm**-1
  84:      1608.68 cm**-1
  85:      1665.44 cm**-1
  86:      1679.53 cm**-1
  87:      1687.10 cm**-1
  88:      1692.51 cm**-1
  89:      2127.56 cm**-1
  90:      3204.70 cm**-1
  91:      3205.06 cm**-1
  92:      3209.27 cm**-1
  93:      3211.70 cm**-1
  94:      3212.90 cm**-1
  95:      3221.23 cm**-1
  96:      3229.59 cm**-1
  97:      3237.18 cm**-1
  98:      3238.51 cm**-1

IR SPECTRUM
-----------

 Mode   freq       eps      Int      T**2         TX        TY        TZ
       cm**-1   L/(mol*cm) km/mol    a.u.
----------------------------------------------------------------------------
  6:     87.44   0.000107    0.54  0.000382  (-0.000018  0.000003 -0.019554)
  7:     89.22   0.000000    0.00  0.000000  (-0.000016 -0.000036 -0.000477)
  8:    128.71   0.000859    4.34  0.002082  (-0.000021  0.000011 -0.045633)
  9:    170.47   0.000029    0.15  0.000053  ( 0.000014 -0.000009 -0.007287)
 10:    227.54   0.000019    0.10  0.000026  ( 0.000001 -0.000006  0.005081)
 11:    295.92   0.000011    0.06  0.000012  ( 0.000013  0.000019 -0.003475)
 12:    301.17   0.000002    0.01  0.000003  (-0.000002  0.000001 -0.001586)
 13:    308.44   0.000046    0.23  0.000047  ( 0.000008  0.000005 -0.006838)
 14:    336.98   0.000082    0.41  0.000076  ( 0.000006  0.000014  0.008714)
 15:    360.27   0.001934    9.77  0.001675  (-0.033989 -0.022801 -0.000001)
 16:    367.04   0.000007    0.03  0.000006  (-0.000326  0.002401 -0.000000)
 17:    389.74   0.000525    2.65  0.000420  (-0.008447  0.018678 -0.000001)
 18:    395.00   0.000612    3.09  0.000484  ( 0.016532 -0.014498  0.000001)
 19:    447.39   0.012901   65.19  0.008998  ( 0.082388  0.047018  0.000001)
 20:    455.62   0.000163    0.82  0.000112  ( 0.000001 -0.000009  0.010566)
 21:    458.43   0.000345    1.74  0.000235  ( 0.000005 -0.000010  0.015314)
 22:    475.69   0.000014    0.07  0.000009  ( 0.002259 -0.001976  0.000000)
 23:    496.93   0.000069    0.35  0.000043  ( 0.002454 -0.006086 -0.000001)
 24:    504.14   0.000011    0.06  0.000007  ( 0.001762 -0.001979 -0.000001)
 25:    506.89   0.000070    0.36  0.000043  (-0.000016 -0.000020 -0.006582)
 26:    512.29   0.000578    2.92  0.000352  ( 0.014883  0.011432  0.000001)
 27:    545.28   0.001485    7.50  0.000850  (-0.000026 -0.000008 -0.029152)
 28:    559.27   0.000535    2.70  0.000298  (-0.000017 -0.000034  0.017272)
 29:    584.25   0.001227    6.20  0.000655  ( 0.021255  0.014263  0.000002)
 30:    591.99   0.003890   19.66  0.002050  ( 0.000000  0.000018  0.045281)
 31:    645.92   0.000033    0.17  0.000016  (-0.000000  0.000001 -0.004009)
 32:    654.08   0.000281    1.42  0.000134  ( 0.007463  0.008862  0.000001)
 33:    676.57   0.000000    0.00  0.000000  (-0.000004 -0.000005 -0.000167)
 34:    683.87   0.000378    1.91  0.000172  (-0.006736  0.011272 -0.000001)
 35:    687.94   0.000002    0.01  0.000001  (-0.000413 -0.000970  0.000000)
 36:    698.97   0.000001    0.01  0.000001  ( 0.000011  0.000017  0.000717)
 37:    744.17   0.001609    8.13  0.000675  ( 0.018532  0.018195  0.000001)
 38:    773.39   0.001092    5.52  0.000441  ( 0.015869 -0.013746  0.000002)
 39:    795.44   0.000003    0.02  0.000001  ( 0.000002 -0.000004  0.001118)
 40:    814.05   0.000321    1.62  0.000123  (-0.000009 -0.000014 -0.011097)
 41:    836.06   0.002227   11.25  0.000831  (-0.000002 -0.000006 -0.028830)
 42:    837.87   0.000024    0.12  0.000009  (-0.000908  0.002855 -0.000014)
 43:    839.04   0.000326    1.65  0.000121  (-0.006938  0.008547 -0.000012)
 44:    841.32   0.000540    2.73  0.000200  ( 0.000007 -0.000002 -0.014147)
 45:    862.59   0.000452    2.28  0.000164  ( 0.000013  0.000003 -0.012789)
 46:    882.44   0.011314   57.18  0.004001  (-0.000003 -0.000015  0.063255)
 47:    893.49   0.010034   50.71  0.003505  ( 0.000021  0.000013  0.059200)
 48:    911.35   0.000149    0.75  0.000051  (-0.006483 -0.003015 -0.000007)
 49:    951.90   0.000011    0.05  0.000004  (-0.000050  0.000064 -0.001882)
 50:    984.88   0.000009    0.04  0.000003  (-0.000018 -0.000019 -0.001677)
 51:    992.26   0.000005    0.02  0.000002  (-0.000008 -0.000046  0.001227)
 52:    995.03   0.000111    0.56  0.000035  (-0.000014 -0.000004 -0.005897)
 53:   1001.63   0.000001    0.00  0.000000  (-0.000009  0.000000 -0.000423)
 54:   1003.33   0.000084    0.43  0.000026  ( 0.003296  0.003924 -0.000001)
 55:   1017.06   0.000051    0.26  0.000016  ( 0.002406  0.003136  0.000001)
 56:   1051.91   0.000104    0.52  0.000031  ( 0.003522 -0.004289 -0.000000)
 57:   1146.70   0.002603   13.15  0.000708  (-0.006658 -0.025769  0.000001)
 58:   1148.30   0.001341    6.78  0.000364  (-0.018687  0.003911  0.000000)
 59:   1165.04   0.000485    2.45  0.000130  (-0.005271  0.010107 -0.000001)
 60:   1173.80   0.000156    0.79  0.000042  (-0.003674  0.005298 -0.000001)
 61:   1201.68   0.000155    0.78  0.000040  ( 0.006027 -0.001989  0.000001)
 62:   1214.46   0.000088    0.44  0.000023  ( 0.000558 -0.004716  0.000001)
 63:   1227.09   0.000239    1.21  0.000061  ( 0.003184 -0.007125  0.000001)
 64:   1249.38   0.000308    1.55  0.000077  (-0.008278  0.002877 -0.000000)
 65:   1252.47   0.000655    3.31  0.000163  ( 0.004443 -0.011973  0.000001)
 66:   1255.82   0.000062    0.31  0.000015  ( 0.003888  0.000514  0.000000)
 67:   1297.56   0.001412    7.14  0.000340  ( 0.007805 -0.016695  0.000001)
 68:   1308.94   0.001366    6.90  0.000326  ( 0.015577  0.009108 -0.000000)
 69:   1345.90   0.000606    3.06  0.000141  ( 0.005285 -0.010611  0.000000)
 70:   1365.45   0.000422    2.13  0.000096  (-0.001889 -0.009640  0.000000)
 71:   1380.08   0.000565    2.86  0.000128  (-0.010836 -0.003232 -0.000001)
 72:   1405.51   0.000207    1.04  0.000046  ( 0.004934 -0.004641 -0.000000)
 73:   1414.51   0.000125    0.63  0.000027  (-0.003435 -0.003960  0.000000)
 74:   1426.32   0.000835    4.22  0.000183  ( 0.004927 -0.012586  0.000001)
 75:   1442.13   0.000478    2.41  0.000103  (-0.007275  0.007100 -0.000001)
 76:   1456.69   0.000231    1.17  0.000049  ( 0.006996  0.000698  0.000001)
 77:   1476.62   0.000089    0.45  0.000019  (-0.003851  0.002010  0.000000)
 78:   1479.26   0.000685    3.46  0.000145  (-0.007087  0.009713  0.000000)
 79:   1496.09   0.000002    0.01  0.000000  (-0.000621 -0.000106  0.000000)
 80:   1550.85   0.002011   10.16  0.000405  ( 0.006671  0.018976 -0.000000)
 81:   1557.28   0.001693    8.56  0.000339  (-0.017594  0.005455 -0.000001)
 82:   1573.51   0.000540    2.73  0.000107  (-0.010317 -0.000825 -0.000001)
 83:   1594.13   0.002492   12.59  0.000488  (-0.015222  0.016001 -0.000001)
 84:   1608.68   0.001077    5.44  0.000209  (-0.010500 -0.009933 -0.000001)
 85:   1665.44   0.001485    7.51  0.000278  ( 0.001823 -0.016584  0.000000)
 86:   1679.53   0.001042    5.27  0.000194  (-0.013832  0.001528 -0.000001)
 87:   1687.10   0.001195    6.04  0.000221  ( 0.012899  0.007399  0.000001)
 88:   1692.51   0.001056    5.33  0.000195  ( 0.010052  0.009674 -0.000000)
 89:   2127.56   0.000396    2.00  0.000058  (-0.005500  0.005271 -0.000001)
 90:   3204.70   0.000053    0.27  0.000005  (-0.002055  0.000988  0.000000)
 91:   3205.06   0.000060    0.30  0.000006  (-0.002321  0.000698 -0.000000)
 92:   3209.27   0.000254    1.28  0.000025  ( 0.001143 -0.004838  0.000000)
 93:   3211.70   0.000517    2.61  0.000050  (-0.006942 -0.001425 -0.000000)
 94:   3212.90   0.000444    2.24  0.000043  ( 0.004788  0.004492  0.000000)
 95:   3221.23   0.002024   10.23  0.000196  (-0.007573 -0.011780 -0.000000)
 96:   3229.59   0.001227    6.20  0.000119  (-0.005072  0.009633 -0.000001)
 97:   3237.18   0.000555    2.81  0.000054  (-0.004522 -0.005750 -0.000000)
 98:   3238.51   0.000596    3.01  0.000057  (-0.007500 -0.001070 -0.000000)

--------------------------
THERMOCHEMISTRY AT 10000.00K
--------------------------

Temperature         ... 10000.00 K
Pressure            ... 1.00 atm
Total Mass          ... 297.34 AMU

Throughout the following assumptions are being made:
  (1) The electronic state is orbitally nondegenerate
      but the spin degeneracy is treated
  (2) There are no thermally accessible electronically excited states
  (3) Hindered rotations indicated by low frequency modes are not
      treated as such but are treated as vibrations and this may
      cause some error
  (4) All equations used are the standard statistical mechanics
      equations for an ideal gas
  (5) All vibrations are strictly harmonic

freq.      87.44  E(vib)   ...      19.75
freq.      89.22  E(vib)   ...      19.75
freq.     128.71  E(vib)   ...      19.69
freq.     170.47  E(vib)   ...      19.63
freq.     227.54  E(vib)   ...      19.55
freq.     295.92  E(vib)   ...      19.45
freq.     301.17  E(vib)   ...      19.45
freq.     308.44  E(vib)   ...      19.43
freq.     336.98  E(vib)   ...      19.39
freq.     360.27  E(vib)   ...      19.36
freq.     367.04  E(vib)   ...      19.35
freq.     389.74  E(vib)   ...      19.32
freq.     395.00  E(vib)   ...      19.31
freq.     447.39  E(vib)   ...      19.24
freq.     455.62  E(vib)   ...      19.23
freq.     458.43  E(vib)   ...      19.22
freq.     475.69  E(vib)   ...      19.20
freq.     496.93  E(vib)   ...      19.17
freq.     504.14  E(vib)   ...      19.16
freq.     506.89  E(vib)   ...      19.16
freq.     512.29  E(vib)   ...      19.15
freq.     545.28  E(vib)   ...      19.10
freq.     559.27  E(vib)   ...      19.08
freq.     584.25  E(vib)   ...      19.05
freq.     591.99  E(vib)   ...      19.04
freq.     645.92  E(vib)   ...      18.96
freq.     654.08  E(vib)   ...      18.95
freq.     676.57  E(vib)   ...      18.92
freq.     683.87  E(vib)   ...      18.91
freq.     687.94  E(vib)   ...      18.91
freq.     698.97  E(vib)   ...      18.89
freq.     744.17  E(vib)   ...      18.83
freq.     773.39  E(vib)   ...      18.79
freq.     795.44  E(vib)   ...      18.76
freq.     814.05  E(vib)   ...      18.73
freq.     836.06  E(vib)   ...      18.70
freq.     837.87  E(vib)   ...      18.70
freq.     839.04  E(vib)   ...      18.70
freq.     841.32  E(vib)   ...      18.69
freq.     862.59  E(vib)   ...      18.66
freq.     882.44  E(vib)   ...      18.64
freq.     893.49  E(vib)   ...      18.62
freq.     911.35  E(vib)   ...      18.60
freq.     951.90  E(vib)   ...      18.54
freq.     984.88  E(vib)   ...      18.50
freq.     992.26  E(vib)   ...      18.49
freq.     995.03  E(vib)   ...      18.48
freq.    1001.63  E(vib)   ...      18.47
freq.    1003.33  E(vib)   ...      18.47
freq.    1017.06  E(vib)   ...      18.45
freq.    1051.91  E(vib)   ...      18.41
freq.    1146.70  E(vib)   ...      18.28
freq.    1148.30  E(vib)   ...      18.28
freq.    1165.04  E(vib)   ...      18.25
freq.    1173.80  E(vib)   ...      18.24
freq.    1201.68  E(vib)   ...      18.20
freq.    1214.46  E(vib)   ...      18.19
freq.    1227.09  E(vib)   ...      18.17
freq.    1249.38  E(vib)   ...      18.14
freq.    1252.47  E(vib)   ...      18.14
freq.    1255.82  E(vib)   ...      18.13
freq.    1297.56  E(vib)   ...      18.08
freq.    1308.94  E(vib)   ...      18.06
freq.    1345.90  E(vib)   ...      18.01
freq.    1365.45  E(vib)   ...      17.98
freq.    1380.08  E(vib)   ...      17.96
freq.    1405.51  E(vib)   ...      17.93
freq.    1414.51  E(vib)   ...      17.92
freq.    1426.32  E(vib)   ...      17.90
freq.    1442.13  E(vib)   ...      17.88
freq.    1456.69  E(vib)   ...      17.86
freq.    1476.62  E(vib)   ...      17.84
freq.    1479.26  E(vib)   ...      17.83
freq.    1496.09  E(vib)   ...      17.81
freq.    1550.85  E(vib)   ...      17.74
freq.    1557.28  E(vib)   ...      17.73
freq.    1573.51  E(vib)   ...      17.71
freq.    1594.13  E(vib)   ...      17.68
freq.    1608.68  E(vib)   ...      17.66
freq.    1665.44  E(vib)   ...      17.59
freq.    1679.53  E(vib)   ...      17.57
freq.    1687.10  E(vib)   ...      17.56
freq.    1692.51  E(vib)   ...      17.55
freq.    2127.56  E(vib)   ...      16.99
freq.    3204.70  E(vib)   ...      15.64
freq.    3205.06  E(vib)   ...      15.64
freq.    3209.27  E(vib)   ...      15.64
freq.    3211.70  E(vib)   ...      15.63
freq.    3212.90  E(vib)   ...      15.63
freq.    3221.23  E(vib)   ...      15.62
freq.    3229.59  E(vib)   ...      15.61
freq.    3237.18  E(vib)   ...      15.60
freq.    3238.51  E(vib)   ...      15.60

------------
INNER ENERGY
------------

The inner energy is: U= E(el) + E(ZPE) + E(vib) + E(rot) + E(trans)
    E(el)   - is the total energy from the electronic structure calculation
              = E(kin-el) + E(nuc-el) + E(el-el) + E(nuc-nuc)
    E(ZPE)  - the the zero temperature vibrational energy from the frequency calculation
    E(vib)  - the the finite temperature correction to E(ZPE) due to population
              of excited vibrational states
    E(rot)  - is the rotational thermal energy
    E(trans)- is the translational thermal energy

Summary of contributions to the inner energy U:
Electronic energy                ...   -919.83351654 Eh
Zero point energy                ...      0.24537965 Eh     153.98 kcal/mol
Thermal vibrational correction   ...      2.70992641 Eh    1700.50 kcal/mol
Thermal rotational correction    ...      0.04750198 Eh      29.81 kcal/mol
Thermal translational correction ...      0.04750198 Eh      29.81 kcal/mol
-----------------------------------------------------------------------
Total thermal energy                   -916.78320653 Eh

Summary of corrections to the electronic energy:
(perhaps to be used in another calculation)
Total thermal correction                  2.80493037 Eh    1760.12 kcal/mol
Non-thermal (ZPE) correction              0.24537965 Eh     153.98 kcal/mol
-----------------------------------------------------------------------
Total correction                          3.05031001 Eh    1914.09 kcal/mol

--------
ENTHALPY
--------

The enthalpy is H = U + kB*T
                kB is Boltzmann's constant
Total free energy                 ...   -916.78320653 Eh
Thermal Enthalpy correction       ...      0.03166893 Eh      19.87 kcal/mol
-----------------------------------------------------------------------
Total Enthalpy                    ...   -916.75153760 Eh

Note: Rotational entropy computed according to Herzberg
Infrared and Raman Spectra, Chapter V,1, Van Nostrand Reinhold, 1945
Point Group:  Cs, Symmetry Number:   1
Rotational constants in cm-1:     0.011859     0.011185     0.005756

Vibrational entropy computed according to the QRRHO of S. Grimme

                             ****ORCA TERMINATED NORMALLY****
TOTAL RUN TIME: 0 days 4 hours 39 minutes 36 seconds 180 msec
