                         Program Version 5.0.4 -  RELEASE  -
|  1> !b3lyp 6-311+g** d4 pal4 defgrid3
|  2>
|  3> %scf
|  4> stabperform true
|  5> Diismaxeq 15
|  6> directresetfreq 1
|  7> end
|  8>
|  9> %tddft
| 10>   nroots 1000
| 11>   end
| 12>
| 13>
| 14>
| 15> * xyz 0 1
| 16>   C   2.45809532695984     -2.79759523490044     -0.00000937038140
| 17>   C   1.28164858038698     -3.49663707920152     -0.00004051499092
| 18>   C   0.03017496876468     -2.82710938524277     -0.00011719473118
| 19>   C   -1.20272644245053     -3.53450611399031     -0.00015100469294
| 20>   C   -2.39661264665652     -2.87060595512245     -0.00022444562563
| 21>   C   -2.45065954999137     -1.44934041120254     -0.00027002870879
| 22>   C   -3.68549632351608     -0.75376990610535     -0.00034628961804
| 23>   C   -3.73326477225531      0.61633393483192     -0.00038924311157
| 24>   C   -2.54014992157865      1.36783572256768     -0.00035853123718
| 25>   C   -2.35695540451351      2.76183530738250     -0.00039244783212
| 26>   C   -1.29898369947483      3.39034792016927     -0.00036419460061
| 27>   C   0.01288762161823      2.88482399679672     -0.00029058009959
| 28>   C   1.24339712150878      3.57345987243324     -0.00025773144816
| 29>   C   2.42392367141807      2.87644518943565     -0.00018488365315
| 30>   C   2.44443184549422      1.45936938662606     -0.00014133133660
| 31>   C   3.66682849463860      0.73226281554629     -0.00006533628044
| 32>   C   3.67910990664480     -0.63371065879578     -0.00002320913166
| 33>   C   2.46835349627082     -1.37835162634668     -0.00005333675600
| 34>   C   1.23271176795151     -0.68305244447820     -0.00013043348100
| 35>   C   1.21731240572707      0.74246907120465     -0.00017162125855
| 36>   C   -0.02146708895416      1.44383432509931     -0.00025036887797
| 37>   C   -1.25802564070030      0.70908347456298     -0.00028037154615
| 38>   C   -1.23433750486085     -0.71427638888425     -0.00023903313686
| 39>   C   0.01032314157249     -1.40942838429699     -0.00016038481848
| 40>   H   3.40677014577876     -3.32377182929685      0.00004989557786
| 41>   H   1.29018803611289     -4.58141935709865     -0.00000615993004
| 42>   H   -1.17882126164712     -4.61900801903972     -0.00011671905630
| 43>   H   -3.33017371186068     -3.42302017551220     -0.00024949241119
| 44>   H   -4.60469586153521     -1.32957919465616     -0.00037038699740
| 45>   H   -4.68087418010260      1.14052010398524     -0.00044827745229
| 46>   H   1.23608022850305      4.65636454602007     -0.00029070133766
| 47>   H   3.36912646703921      3.40854233789446     -0.00015978008712
| 48>   H   4.59842216216378      1.28795485689888     -0.00004147972372
| 49>   H   4.62033591630898     -1.17295707229416      0.00003546029845
| 50> **                         ****END OF INPUT****

CARTESIAN COORDINATES (ANGSTROEM)
---------------------------------
  C      2.458095   -2.797595   -0.000009
  C      1.281649   -3.496637   -0.000041
  C      0.030175   -2.827109   -0.000117
  C     -1.202726   -3.534506   -0.000151
  C     -2.396613   -2.870606   -0.000224
  C     -2.450660   -1.449340   -0.000270
  C     -3.685496   -0.753770   -0.000346
  C     -3.733265    0.616334   -0.000389
  C     -2.540150    1.367836   -0.000359
  C     -2.356955    2.761835   -0.000392
  C     -1.298984    3.390348   -0.000364
  C      0.012888    2.884824   -0.000291
  C      1.243397    3.573460   -0.000258
  C      2.423924    2.876445   -0.000185
  C      2.444432    1.459369   -0.000141
  C      3.666828    0.732263   -0.000065
  C      3.679110   -0.633711   -0.000023
  C      2.468353   -1.378352   -0.000053
  C      1.232712   -0.683052   -0.000130
  C      1.217312    0.742469   -0.000172
  C     -0.021467    1.443834   -0.000250
  C     -1.258026    0.709083   -0.000280
  C     -1.234338   -0.714276   -0.000239
  C      0.010323   -1.409428   -0.000160
  H      3.406770   -3.323772    0.000050
  H      1.290188   -4.581419   -0.000006
  H     -1.178821   -4.619008   -0.000117
  H     -3.330174   -3.423020   -0.000249
  H     -4.604696   -1.329579   -0.000370
  H     -4.680874    1.140520   -0.000448
  H      1.236080    4.656365   -0.000291
  H      3.369126    3.408542   -0.000160
  H      4.598422    1.287955   -0.000041
  H      4.620336   -1.172957    0.000035

 Total Charge           Charge          ....    0
 Multiplicity           Mult            ....    1
 Number of Electrons    NEL             ....  154
 Basis Dimension        Dim             ....  588

ORBITAL ENERGIES
----------------

  NO   OCC          E(Eh)            E(eV)
   0   2.0000     -10.215030      -277.9651
   1   2.0000     -10.215009      -277.9645
   2   2.0000     -10.202079      -277.6127
   3   2.0000     -10.201679      -277.6018
   4   2.0000     -10.196771      -277.4683
   5   2.0000     -10.196764      -277.4680
   6   2.0000     -10.194136      -277.3965
   7   2.0000     -10.194071      -277.3948
   8   2.0000     -10.194060      -277.3945
   9   2.0000     -10.193730      -277.3855
  10   2.0000     -10.193144      -277.3696
  11   2.0000     -10.193104      -277.3685
  12   2.0000     -10.186544      -277.1899
  13   2.0000     -10.186542      -277.1899
  14   2.0000     -10.185739      -277.1680
  15   2.0000     -10.185737      -277.1680
  16   2.0000     -10.184559      -277.1359
  17   2.0000     -10.184378      -277.1310
  18   2.0000     -10.184366      -277.1307
  19   2.0000     -10.183901      -277.1180
  20   2.0000     -10.183653      -277.1113
  21   2.0000     -10.183641      -277.1109
  22   2.0000     -10.181842      -277.0620
  23   2.0000     -10.179885      -277.0088
  24   2.0000      -0.919042       -25.0084
  25   2.0000      -0.883747       -24.0480
  26   2.0000      -0.881839       -23.9961
  27   2.0000      -0.836361       -22.7585
  28   2.0000      -0.834920       -22.7193
  29   2.0000      -0.817025       -22.2324
  30   2.0000      -0.788714       -21.4620
  31   2.0000      -0.772006       -21.0073
  32   2.0000      -0.756217       -20.5777
  33   2.0000      -0.749268       -20.3886
  34   2.0000      -0.723453       -19.6862
  35   2.0000      -0.723218       -19.6798
  36   2.0000      -0.647282       -17.6134
  37   2.0000      -0.646376       -17.5888
  38   2.0000      -0.642674       -17.4880
  39   2.0000      -0.634606       -17.2685
  40   2.0000      -0.631962       -17.1966
  41   2.0000      -0.574631       -15.6365
  42   2.0000      -0.558228       -15.1901
  43   2.0000      -0.548796       -14.9335
  44   2.0000      -0.543448       -14.7880
  45   2.0000      -0.536128       -14.5888
  46   2.0000      -0.525160       -14.2903
  47   2.0000      -0.487445       -13.2641
  48   2.0000      -0.483550       -13.1581
  49   2.0000      -0.471605       -12.8330
  50   2.0000      -0.466894       -12.7048
  51   2.0000      -0.460446       -12.5294
  52   2.0000      -0.448390       -12.2013
  53   2.0000      -0.438636       -11.9359
  54   2.0000      -0.436097       -11.8668
  55   2.0000      -0.431124       -11.7315
  56   2.0000      -0.421345       -11.4654
  57   2.0000      -0.421051       -11.4574
  58   2.0000      -0.410205       -11.1622
  59   2.0000      -0.398474       -10.8430
  60   2.0000      -0.395861       -10.7719
  61   2.0000      -0.387630       -10.5479
  62   2.0000      -0.385554       -10.4915
  63   2.0000      -0.375741       -10.2244
  64   2.0000      -0.371504       -10.1091
  65   2.0000      -0.344449        -9.3729
  66   2.0000      -0.342386        -9.3168
  67   2.0000      -0.336869        -9.1667
  68   2.0000      -0.334604        -9.1050
  69   2.0000      -0.327289        -8.9060
  70   2.0000      -0.283578        -7.7166
  71   2.0000      -0.279199        -7.5974
  72   2.0000      -0.273522        -7.4429
  73   2.0000      -0.263523        -7.1708
  74   2.0000      -0.261688        -7.1209
  75   2.0000      -0.216793        -5.8992
  76   2.0000      -0.214717        -5.8427
  77   0.0000      -0.134564        -3.6617
  78   0.0000      -0.081546        -2.2190
  79   0.0000      -0.070678        -1.9232
  80   0.0000      -0.063935        -1.7398
  81   0.0000      -0.031856        -0.8669

MULLIKEN ATOMIC CHARGES
-----------------------
   0 C :   -0.291962
   1 C :   -0.541737
   2 C :    1.999079
   3 C :   -0.232991
   4 C :   -0.225557
   5 C :    1.837508
   6 C :   -0.640127
   7 C :   -0.441810
   8 C :    1.442089
   9 C :    0.245914
  10 C :   -0.906879
  11 C :    1.591164
  12 C :   -0.131226
  13 C :   -0.638570
  14 C :    1.680904
  15 C :   -0.327114
  16 C :   -0.564934
  17 C :    2.176843
  18 C :   -1.921858
  19 C :   -0.432432
  20 C :   -1.473733
  21 C :   -1.030988
  22 C :   -0.925567
  23 C :   -1.522039
  24 H :    0.124512
  25 H :    0.126026
  26 H :    0.123782
  27 H :    0.123698
  28 H :    0.130976
  29 H :    0.134641
  30 H :    0.134177
  31 H :    0.129012
  32 H :    0.125124
  33 H :    0.124074
Sum of atomic charges:    0.0000000

LOEWDIN ATOMIC CHARGES
----------------------
   0 C :   -0.035182
   1 C :   -0.035215
   2 C :   -0.064111
   3 C :   -0.036300
   4 C :   -0.035452
   5 C :   -0.065678
   6 C :   -0.031168
   7 C :   -0.036656
   8 C :   -0.060779
   9 C :    0.009788
  10 C :    0.009557
  11 C :   -0.060767
  12 C :   -0.036580
  13 C :   -0.031202
  14 C :   -0.065685
  15 C :   -0.035461
  16 C :   -0.036338
  17 C :   -0.064112
  18 C :   -0.021183
  19 C :   -0.018222
  20 C :   -0.015260
  21 C :   -0.015184
  22 C :   -0.018248
  23 C :   -0.021152
  24 H :    0.081170
  25 H :    0.081165
  26 H :    0.081179
  27 H :    0.081201
  28 H :    0.081778
  29 H :    0.084955
  30 H :    0.084971
  31 H :    0.081805
  32 H :    0.081189
  33 H :    0.081177

  Mayer bond orders larger than 0.100000
B(  0-C ,  2-C ) :   0.3827 B(  0-C ,  4-C ) :   0.2471 B(  0-C ,  6-C ) :  -0.1399
B(  0-C , 10-C ) :   0.1101 B(  0-C , 12-C ) :  -0.1237 B(  0-C , 14-C ) :  -0.2823
B(  0-C , 15-C ) :   0.1395 B(  0-C , 16-C ) :  -0.7812 B(  0-C , 17-C ) :  -0.2596
B(  0-C , 18-C ) :   1.5366 B(  0-C , 19-C ) :   0.3267 B(  0-C , 20-C ) :  -0.1356
B(  0-C , 22-C ) :  -0.1837 B(  0-C , 23-C ) :  -0.5000 B(  0-C , 24-H ) :   1.2784
B(  0-C , 25-H ) :  -0.1382 B(  1-C ,  2-C ) :  -0.7062 B(  1-C ,  3-C ) :  -0.8878
B(  1-C ,  8-C ) :   0.1896 B(  1-C , 11-C ) :  -0.1915 B(  1-C , 13-C ) :  -0.2719
B(  1-C , 15-C ) :   0.2539 B(  1-C , 17-C ) :   0.1471 B(  1-C , 18-C ) :  -0.2594
B(  1-C , 19-C ) :  -0.2024 B(  1-C , 20-C ) :   0.4185 B(  1-C , 21-C ) :  -0.1998
B(  1-C , 22-C ) :   0.1996 B(  1-C , 23-C ) :   1.9095 B(  1-C , 24-H ) :  -0.1276
B(  1-C , 25-H ) :   1.4334 B(  1-C , 26-H ) :  -0.1719 B(  2-C ,  3-C ) :   0.5392
B(  2-C ,  4-C ) :  -0.1021 B(  2-C ,  5-C ) :  -0.1417 B(  2-C ,  8-C ) :  -0.1554
B(  2-C ,  9-C ) :  -0.1141 B(  2-C , 11-C ) :   0.8013 B(  2-C , 12-C ) :  -0.1239
B(  2-C , 14-C ) :  -0.1332 B(  2-C , 16-C ) :  -0.1142 B(  2-C , 17-C ) :  -0.1696
B(  2-C , 18-C ) :   0.2309 B(  2-C , 19-C ) :   1.1718 B(  2-C , 20-C ) :  -1.6962
B(  2-C , 21-C ) :   0.7226 B(  2-C , 22-C ) :   0.1971 B(  2-C , 23-C ) :  -3.2452
B(  2-C , 24-H ) :   0.1073 B(  2-C , 25-H ) :  -0.6108 B(  2-C , 26-H ) :  -0.3242
B(  3-C ,  4-C ) :   0.6367 B(  3-C ,  5-C ) :  -0.2538 B(  3-C ,  7-C ) :   0.2557
B(  3-C ,  8-C ) :   0.4589 B(  3-C ,  9-C ) :  -0.2576 B(  3-C , 18-C ) :   0.1376
B(  3-C , 20-C ) :   0.1141 B(  3-C , 21-C ) :  -0.5438 B(  3-C , 22-C ) :   0.1144
B(  3-C , 23-C ) :   0.7008 B(  3-C , 25-H ) :  -0.1666 B(  3-C , 26-H ) :   1.1496
B(  4-C ,  5-C ) :   0.5545 B(  4-C ,  6-C ) :  -0.7738 B(  4-C ,  7-C ) :   0.1654
B(  4-C ,  8-C ) :  -0.6874 B(  4-C ,  9-C ) :   0.1150 B(  4-C , 10-C ) :  -0.6012
B(  4-C , 11-C ) :   0.7079 B(  4-C , 12-C ) :   0.2028 B(  4-C , 17-C ) :   0.3238
B(  4-C , 18-C ) :  -0.5408 B(  4-C , 20-C ) :  -0.4074 B(  4-C , 21-C ) :   0.5856
B(  4-C , 22-C ) :   0.3824 B(  4-C , 23-C ) :  -0.2286 B(  4-C , 27-H ) :   1.2801
B(  4-C , 28-H ) :  -0.1506 B(  5-C ,  6-C ) :  -0.7006 B(  5-C ,  7-C ) :   0.2529
B(  5-C ,  8-C ) :   0.1176 B(  5-C ,  9-C ) :  -0.3507 B(  5-C , 10-C ) :  -0.2627
B(  5-C , 11-C ) :  -0.1517 B(  5-C , 12-C ) :   0.1756 B(  5-C , 13-C ) :  -0.1547
B(  5-C , 14-C ) :   0.3785 B(  5-C , 16-C ) :  -0.1128 B(  5-C , 17-C ) :   0.1013
B(  5-C , 18-C ) :   0.3842 B(  5-C , 19-C ) :  -0.7477 B(  5-C , 20-C ) :   1.0896
B(  5-C , 21-C ) :  -0.1602 B(  5-C , 22-C ) :  -0.4375 B(  5-C , 23-C ) :   0.2369
B(  5-C , 27-H ) :  -0.3708 B(  5-C , 28-H ) :  -0.7332 B(  6-C ,  7-C ) :   0.1915
B(  6-C ,  8-C ) :  -0.2669 B(  6-C ,  9-C ) :   0.5157 B(  6-C , 10-C ) :   0.2530
B(  6-C , 11-C ) :  -0.2864 B(  6-C , 17-C ) :  -0.3581 B(  6-C , 18-C ) :   0.5109
B(  6-C , 20-C ) :  -0.2254 B(  6-C , 21-C ) :   0.2712 B(  6-C , 22-C ) :   1.1621
B(  6-C , 23-C ) :   0.2363 B(  6-C , 27-H ) :  -0.1606 B(  6-C , 28-H ) :   1.5112
B(  7-C ,  8-C ) :  -0.3338 B(  7-C ,  9-C ) :  -0.9221 B(  7-C , 10-C ) :  -0.1234
B(  7-C , 11-C ) :   0.3253 B(  7-C , 19-C ) :  -0.1116 B(  7-C , 21-C ) :   1.7307
B(  7-C , 22-C ) :  -0.6376 B(  7-C , 23-C ) :  -0.2575 B(  7-C , 29-H ) :   1.2602
B(  8-C , 10-C ) :   0.6222 B(  8-C , 12-C ) :   0.1348 B(  8-C , 13-C ) :   0.1813
B(  8-C , 14-C ) :  -0.2762 B(  8-C , 15-C ) :   0.1737 B(  8-C , 16-C ) :   0.1215
B(  8-C , 17-C ) :   0.8623 B(  8-C , 18-C ) :  -1.7451 B(  8-C , 19-C ) :   0.6895
B(  8-C , 20-C ) :  -1.3652 B(  8-C , 21-C ) :  -0.8411 B(  8-C , 22-C ) :   0.4477
B(  8-C , 23-C ) :   0.3003 B(  8-C , 28-H ) :   0.1615 B(  8-C , 29-H ) :  -0.2012
B(  9-C , 10-C ) :  -2.1312 B(  9-C , 11-C ) :   1.3925 B(  9-C , 12-C ) :   0.5457
B(  9-C , 13-C ) :   0.2952 B(  9-C , 14-C ) :  -0.1123 B(  9-C , 15-C ) :  -0.3016
B(  9-C , 16-C ) :   0.1266 B(  9-C , 17-C ) :   0.4462 B(  9-C , 18-C ) :  -0.6884
B(  9-C , 19-C ) :   0.2018 B(  9-C , 20-C ) :  -1.4936 B(  9-C , 21-C ) :   0.6101
B(  9-C , 22-C ) :   0.1791 B(  9-C , 23-C ) :   0.4900 B(  9-C , 29-H ) :  -0.1526
B( 10-C , 11-C ) :  -1.5632 B( 10-C , 12-C ) :  -1.7436 B( 10-C , 13-C ) :   0.2531
B( 10-C , 16-C ) :  -0.1134 B( 10-C , 17-C ) :  -1.1010 B( 10-C , 18-C ) :   1.5259
B( 10-C , 19-C ) :  -0.3053 B( 10-C , 20-C ) :   2.8050 B( 10-C , 21-C ) :  -0.6671
B( 10-C , 22-C ) :   0.6255 B( 10-C , 23-C ) :  -0.3240 B( 10-C , 30-H ) :  -0.1470
B( 11-C , 12-C ) :   0.2840 B( 11-C , 13-C ) :  -0.5385 B( 11-C , 16-C ) :   0.1249
B( 11-C , 17-C ) :   0.4100 B( 11-C , 18-C ) :  -0.2856 B( 11-C , 19-C ) :   0.4233
B( 11-C , 20-C ) :  -0.8132 B( 11-C , 21-C ) :  -0.8938 B( 11-C , 22-C ) :   0.2201
B( 11-C , 23-C ) :  -1.2626 B( 11-C , 30-H ) :  -0.2546 B( 12-C , 13-C ) :   0.4462
B( 12-C , 14-C ) :  -0.1291 B( 12-C , 16-C ) :   0.2589 B( 12-C , 17-C ) :   0.6150
B( 12-C , 18-C ) :  -0.9382 B( 12-C , 19-C ) :  -0.3151 B( 12-C , 20-C ) :   0.6897
B( 12-C , 22-C ) :  -0.4323 B( 12-C , 23-C ) :   0.3675 B( 12-C , 30-H ) :   1.3699
B( 13-C , 14-C ) :  -0.6221 B( 13-C , 15-C ) :  -0.4326 B( 13-C , 17-C ) :  -0.1315
B( 13-C , 18-C ) :   0.2484 B( 13-C , 19-C ) :   1.0033 B( 13-C , 21-C ) :  -0.3437
B( 13-C , 23-C ) :   0.2054 B( 13-C , 31-H ) :   1.4145 B( 13-C , 32-H ) :  -0.1058
B( 14-C , 15-C ) :  -0.1588 B( 14-C , 18-C ) :   0.7485 B( 14-C , 19-C ) :  -0.1059
B( 14-C , 21-C ) :   0.8398 B( 14-C , 22-C ) :  -0.8896 B( 14-C , 23-C ) :   0.5782
B( 14-C , 31-H ) :  -0.5931 B( 14-C , 32-H ) :  -0.6009 B( 15-C , 16-C ) :   0.4162
B( 15-C , 17-C ) :   0.2818 B( 15-C , 18-C ) :  -0.5710 B( 15-C , 19-C ) :   0.6053
B( 15-C , 20-C ) :   0.2559 B( 15-C , 21-C ) :  -0.1314 B( 15-C , 22-C ) :   0.1168
B( 15-C , 23-C ) :  -0.2750 B( 15-C , 32-H ) :   1.4017 B( 15-C , 33-H ) :  -0.1073
B( 16-C , 17-C ) :  -0.5639 B( 16-C , 18-C ) :   1.8025 B( 16-C , 20-C ) :  -0.2357
B( 16-C , 22-C ) :   0.1808 B( 16-C , 24-H ) :  -0.1532 B( 16-C , 33-H ) :   1.2885
B( 17-C , 18-C ) :  -4.2229 B( 17-C , 19-C ) :  -0.2647 B( 17-C , 20-C ) :   0.4564
B( 17-C , 21-C ) :  -1.7111 B( 17-C , 22-C ) :   0.8320 B( 17-C , 23-C ) :   0.5330
B( 17-C , 24-H ) :  -0.4949 B( 17-C , 25-H ) :   0.1372 B( 17-C , 32-H ) :   0.1302
B( 17-C , 33-H ) :  -0.5463 B( 18-C , 19-C ) :   1.8987 B( 18-C , 20-C ) :  -0.4485
B( 18-C , 21-C ) :   2.9158 B( 18-C , 22-C ) :  -1.7272 B( 18-C , 23-C ) :   1.6215
B( 18-C , 24-H ) :   0.5600 B( 18-C , 25-H ) :  -0.1864 B( 18-C , 32-H ) :  -0.1626
B( 18-C , 33-H ) :   0.4486 B( 19-C , 20-C ) :   2.3973 B( 19-C , 21-C ) :  -1.6409
B( 19-C , 22-C ) :   2.0757 B( 19-C , 23-C ) :  -2.0040 B( 19-C , 31-H ) :   0.2957
B( 19-C , 32-H ) :   0.4069 B( 19-C , 33-H ) :  -0.1115 B( 20-C , 21-C ) :   4.4804
B( 20-C , 22-C ) :  -1.6953 B( 20-C , 23-C ) :   2.2763 B( 20-C , 31-H ) :  -0.1104
B( 21-C , 22-C ) :   2.3453 B( 21-C , 23-C ) :  -0.9546 B( 21-C , 28-H ) :  -0.2059
B( 21-C , 29-H ) :   0.2024 B( 22-C , 23-C ) :   2.3460 B( 22-C , 26-H ) :  -0.1161
B( 22-C , 27-H ) :   0.2904 B( 22-C , 28-H ) :   0.4970 B( 23-C , 24-H ) :  -0.1649
B( 23-C , 25-H ) :   0.5359 B( 23-C , 26-H ) :   0.4359 B( 23-C , 27-H ) :  -0.1092

-----------------------------------------------------------------------------
         ABSORPTION SPECTRUM VIA TRANSITION ELECTRIC DIPOLE MOMENTS
-----------------------------------------------------------------------------
State   Energy    Wavelength  fosc         T2        TX        TY        TZ
        (cm-1)      (nm)                 (au**2)    (au)      (au)      (au)
-----------------------------------------------------------------------------
   1   11833.1    845.1   0.000083834   0.00233  -0.00001   0.00002  -0.04829
   2   13831.2    723.0   0.000000331   0.00001  -0.00004   0.00003   0.00281
   3   20295.0    492.7   0.000000005   0.00000  -0.00001  -0.00001   0.00030
   4   22691.3    440.7   0.000000002   0.00000   0.00001   0.00000  -0.00019
   5   23200.5    431.0   0.000388236   0.00551   0.00001   0.00000   0.07422
   6   24097.4    415.0   0.000000694   0.00001   0.00004   0.00001   0.00308
   7   25542.0    391.5   0.000026647   0.00034  -0.01845  -0.00175   0.00005
   8   26225.6    381.3   0.002278834   0.02861  -0.08632   0.14545  -0.00001
   9   26395.0    378.9   0.000000007   0.00000  -0.00000  -0.00002  -0.00029
  10   28217.4    354.4   0.012815824   0.14952   0.33263   0.19718   0.00001
  11   28865.7    346.4   0.000000274   0.00000  -0.00001  -0.00000  -0.00177
  12   32698.6    305.8   0.000000000   0.00000   0.00000  -0.00000   0.00002
  13   33877.7    295.2   0.201563730   1.95873  -1.20344  -0.71446  -0.00003
  14   34232.7    292.1   0.273224865   2.62757   0.82644  -1.39448   0.00008
  15   34349.7    291.1   0.000124376   0.00119   0.00003  -0.00004  -0.03453
  16   34921.6    286.4   0.348230376   3.28283   1.55834   0.92435   0.00004
  17   35439.1    282.2   0.047163672   0.43813  -0.56709  -0.34138  -0.00002
  18   35499.7    281.7   0.091627263   0.84972  -0.47280   0.79131  -0.00004
  19   35923.9    278.4   0.423994988   3.88555   1.00710  -1.69449   0.00010
  20   36913.0    270.9   0.001498325   0.01336  -0.09939  -0.05903   0.00000
  21   37148.0    269.2   0.000545613   0.00484   0.00002   0.00002   0.06954
  22   37205.8    268.8   0.000001682   0.00001   0.00001  -0.00006  -0.00386
  23   37587.1    266.0   0.120439136   1.05488  -0.88277  -0.52498  -0.00002
  24   37781.2    264.7   0.000759745   0.00662   0.00001   0.00002  -0.08136
  25   37963.1    263.4   0.004022717   0.03488   0.09588  -0.16028  -0.00000
  26   38249.9    261.4   0.000000001   0.00000  -0.00002   0.00002   0.00007
  27   39096.7    255.8   0.024029834   0.20234  -0.38665  -0.22988  -0.00001
  28   39357.8    254.1   0.000007538   0.00006  -0.00331   0.00722  -0.00009
  29   39455.1    253.5   0.000000001   0.00000  -0.00001   0.00004  -0.00009
  30   39785.6    251.3   0.000645900   0.00534   0.03726  -0.06290   0.00000
  31   40522.6    246.8   0.000042427   0.00034   0.00003   0.00001  -0.01857
  32   41088.2    243.4   0.069505854   0.55690  -0.64171  -0.38094  -0.00002
  33   41805.3    239.2   0.000011178   0.00009   0.00004   0.00003  -0.00938
  34   41888.0    238.7   0.000127662   0.00100  -0.01581   0.02745   0.00002
  35   42180.2    237.1   0.002251579   0.01757  -0.06828   0.11363  -0.00006
  36   42243.8    236.7   0.000778609   0.00607  -0.03900   0.06743   0.00007
  37   42746.9    233.9   0.000000000   0.00000   0.00000   0.00001   0.00005
  38   43032.7    232.4   0.003703956   0.02834   0.14480   0.08585   0.00000
  39   43194.2    231.5   0.000094125   0.00072   0.00000   0.00000  -0.02678
  40   44010.1    227.2   0.000006233   0.00005   0.00001  -0.00002  -0.00683
  41   44146.7    226.5   0.004283784   0.03195  -0.09126   0.15368  -0.00001
  42   44570.3    224.4   0.000383783   0.00283   0.00002   0.00001  -0.05324
  43   44793.3    223.2   0.007158476   0.05261  -0.11679   0.19741  -0.00001
  44   44798.6    223.2   0.000209808   0.00154   0.03465   0.01847   0.00001
  45   45028.1    222.1   0.000436679   0.00319  -0.00002  -0.00006   0.05650
  46   45287.6    220.8   0.000185212   0.00135  -0.00001  -0.00000   0.03669
  47   45436.2    220.1   0.000042741   0.00031   0.00001   0.00001  -0.01760
  48   45792.8    218.4   0.002134756   0.01535   0.00001   0.00001  -0.12388
  49   47124.9    212.2   0.000000000   0.00000   0.00000   0.00000   0.00000
  50   47124.9    212.2   0.000000000   0.00000   0.00000   0.00000   0.00000
  51   47124.9    212.2   0.000000000   0.00000  -0.00000  -0.00000  -0.00000
  52   47124.9    212.2   0.000000000   0.00000   0.00000   0.00000   0.00000
  53   47124.9    212.2   0.000000000   0.00000   0.00000   0.00000   0.00000
  54   47124.9    212.2   0.000000000   0.00000  -0.00000  -0.00000  -0.00000
  55   47153.4    212.1   0.009540243   0.06661  -0.22216  -0.13134  -0.00000
  56   47271.0    211.5   0.000060418   0.00042   0.01258   0.01621  -0.00003
  57   47346.4    211.2   0.000270604   0.00188  -0.00003  -0.00005  -0.04338
  58   47433.0    210.8   0.000000266   0.00000   0.00002  -0.00002  -0.00136
  59   47469.5    210.7   0.000297667   0.00206  -0.02268   0.03937  -0.00004
  60   47500.5    210.5   0.017237221   0.11947  -0.29757  -0.17583  -0.00000
  61   47580.7    210.2   0.000000000   0.00000   0.00000  -0.00000  -0.00000
  62   47580.7    210.2   0.000000000   0.00000   0.00000  -0.00000  -0.00000
  63   47580.7    210.2   0.000000000   0.00000   0.00000  -0.00000  -0.00000
  64   47580.7    210.2   0.000000000   0.00000   0.00000  -0.00000   0.00000
  65   47580.7    210.2   0.000000000   0.00000  -0.00000  -0.00000   0.00000
  66   47580.7    210.2   0.000000000   0.00000  -0.00000   0.00000   0.00000
  67   47614.7    210.0   0.004379312   0.03028  -0.00001   0.00005   0.17401
  68   47871.4    208.9   0.001976994   0.01360   0.00002   0.00003   0.11660
  69   47986.5    208.4   0.000024815   0.00017   0.00001   0.00005   0.01305
  70   48171.7    207.6   0.000103771   0.00071  -0.00000   0.00010  -0.02663
  71   48393.5    206.6   0.000003405   0.00002  -0.00001   0.00017  -0.00481
  72   48503.8    206.2   0.000126926   0.00086   0.00807  -0.02822  -0.00015
  73   48976.0    204.2   0.098844295   0.66442   0.41753  -0.70006   0.00005
  74   49249.5    203.0   0.000073579   0.00049   0.00012  -0.00011   0.02218
  75   49483.0    202.1   0.255935711   1.70275  -1.12191  -0.66639  -0.00004
  76   49608.5    201.6   0.089958485   0.59698  -0.39268   0.66542  -0.00003
  77   49656.6    201.4   0.000845014   0.00560   0.00019   0.00017  -0.07485
  78   50183.2    199.3   0.013382260   0.08779  -0.25371  -0.15304   0.00001
  79   50265.6    198.9   0.001604706   0.01051  -0.05514   0.08643  -0.00000
  80   50425.6    198.3   0.001561694   0.01020   0.08829   0.04900   0.00001
  81   50466.7    198.2   0.000649469   0.00424   0.05073   0.04078   0.00013
  82   50531.7    197.9   0.000981336   0.00639   0.00026   0.00018  -0.07996
  83   50744.6    197.1   0.020206995   0.13110   0.18555  -0.31091   0.00019
  84   50873.5    196.6   0.003881090   0.02512   0.00022  -0.00059  -0.15848
  85   50971.4    196.2   0.000011306   0.00007  -0.00005   0.00002   0.00855
  86   51189.1    195.4   0.097501071   0.62706  -0.40193   0.68228  -0.00008
  87   51213.2    195.3   0.000001319   0.00001   0.00046  -0.00080  -0.00276
  88   51290.0    195.0   0.000011435   0.00007  -0.00131  -0.00014   0.00847
  89   51330.3    194.8   0.251443096   1.61265   1.09175   0.64865   0.00007
  90   51368.0    194.7   0.000252686   0.00162  -0.00100  -0.00074   0.04022
  91   51397.4    194.6   0.000003793   0.00002   0.00102   0.00051   0.00479
  92   51491.3    194.2   0.000651831   0.00417  -0.05834   0.02764   0.00008
  93   51661.2    193.6   0.003567399   0.02273  -0.12916  -0.07779   0.00001
  94   51934.3    192.6   0.000003664   0.00002   0.00001   0.00004   0.00482
  95   52051.8    192.1   0.000000324   0.00000   0.00025  -0.00005   0.00141
  96   52491.2    190.5   0.386557678   2.42439  -1.34142  -0.79057  -0.00006
  97   52662.7    189.9   0.000190226   0.00119  -0.00038   0.00221  -0.03441
  98   52684.0    189.8   0.279415322   1.74601  -0.66994   1.13894  -0.00003
  99   52750.8    189.6   0.000000397   0.00000   0.00014   0.00097   0.00123
 100   52924.9    188.9   0.002880042   0.01791   0.00019   0.00022  -0.13385
 101   53078.0    188.4   0.000031596   0.00020   0.00030   0.00024  -0.01399
 102   53160.6    188.1   0.012635906   0.07825  -0.15857   0.23045   0.00000
 103   53173.8    188.1   0.766291829   4.74430   1.87008   1.11674   0.00004
 104   53351.0    187.4   0.001370016   0.00845   0.00030  -0.00005   0.09194
 105   53592.9    186.6   0.000012724   0.00008  -0.00004  -0.00002  -0.00884
 106   53906.4    185.5   0.027402121   0.16735  -0.34975  -0.21219  -0.00003
 107   54058.4    185.0   0.254843814   1.55198   0.63665  -1.07082   0.00002
 108   54113.1    184.8   0.005150698   0.03134  -0.15380  -0.08764   0.00002
 109   54206.7    184.5   0.002971095   0.01804   0.00004   0.00007  -0.13433
 110   54301.5    184.2   0.018533274   0.11236  -0.17009   0.28885  -0.00001
 111   54620.1    183.1   0.362027181   2.18205   1.26557   0.76183   0.00012
 112   54669.7    182.9   0.000028601   0.00017  -0.00019   0.00026   0.01312
 113   54782.0    182.5   0.790632075   4.75130   1.11785  -1.87128   0.00004
 114   54835.6    182.4   0.000930471   0.00559  -0.00007  -0.00079   0.07474
 115   54881.9    182.2   0.032076058   0.19241   0.38072   0.21785   0.00006
 116   55144.5    181.3   0.017491168   0.10442  -0.00001  -0.00032   0.32314
 117   55263.2    181.0   0.000520289   0.00310   0.00001   0.00011  -0.05567
 118   55325.1    180.7   0.000061008   0.00036   0.01010  -0.01616  -0.00006
 119   55532.1    180.1   0.000467987   0.00277  -0.00006  -0.00010  -0.05267
 120   55612.8    179.8   0.130422210   0.77206   0.43855  -0.76140  -0.00000
 121   55617.9    179.8   0.021714432   0.12853   0.32122   0.15921   0.00002
 122   55750.5    179.4   0.004649857   0.02746  -0.00001  -0.00005   0.16570
 123   55822.7    179.1   0.000043267   0.00026   0.00002   0.00004   0.01597
 124   56208.0    177.9   0.000863528   0.00506   0.00011  -0.00018  -0.07112
 125   56329.0    177.5   0.000005867   0.00003   0.00051  -0.00072  -0.00579
 126   56377.5    177.4   0.001718287   0.01003  -0.04969   0.08697  -0.00038
 127   56614.6    176.6   0.159601088   0.92808  -0.48490   0.83243  -0.00004
 128   56818.9    176.0   0.000000753   0.00000  -0.00002  -0.00063   0.00199
 129   57029.9    175.3   0.003825364   0.02208   0.03020   0.14550   0.00004
 130   57088.9    175.2   0.123062264   0.70966  -0.13444   0.83162   0.00008
 131   57171.2    174.9   0.000002771   0.00002   0.00076  -0.00392  -0.00001
 132   57401.9    174.2   1.201058135   6.88833  -1.74061   1.96434  -0.00020
 133   57433.9    174.1   0.000000000   0.00000   0.00000  -0.00000   0.00000
 134   57433.9    174.1   0.000000000   0.00000   0.00000  -0.00000  -0.00000
 135   57433.9    174.1   0.000000000   0.00000  -0.00000   0.00000   0.00000
 136   57433.9    174.1   0.000000000   0.00000   0.00000  -0.00000  -0.00000
 137   57433.9    174.1   0.000000000   0.00000   0.00000  -0.00000  -0.00000
 138   57433.9    174.1   0.000000000   0.00000   0.00000  -0.00000  -0.00000
 139   57488.1    173.9   0.301438084   1.72622  -0.30076  -1.27897   0.00033
 140   57545.9    173.8   0.000794660   0.00455   0.00073   0.00726   0.06703
 141   57756.8    173.1   0.001618076   0.00922  -0.00026   0.00047   0.09603
 142   57782.5    173.1   0.041073844   0.23402   0.15360  -0.45872   0.00056
 143   57836.6    172.9   0.000000000   0.00000   0.00000  -0.00000  -0.00000
 144   57836.6    172.9   0.000000000   0.00000  -0.00000   0.00000   0.00000
 145   57836.6    172.9   0.000000000   0.00000   0.00000  -0.00000  -0.00000
 146   57836.6    172.9   0.000000000   0.00000  -0.00000   0.00000   0.00000
 147   57836.6    172.9   0.000000000   0.00000  -0.00000   0.00000   0.00000
 148   57836.6    172.9   0.000000000   0.00000  -0.00000   0.00000   0.00000
 149   57968.0    172.5   0.005667708   0.03219  -0.00040   0.00002   0.17941
 150   57998.6    172.4   0.001264038   0.00717  -0.00016  -0.00033  -0.08470
 151   58119.1    172.1   0.001176385   0.00666  -0.00075  -0.00155  -0.08161
 152   58209.0    171.8   0.000220180   0.00125  -0.00090  -0.00182  -0.03523
 153   58270.7    171.6   0.169445324   0.95731   0.57283   0.79321  -0.00191
 154   58305.0    171.5   0.000168779   0.00095   0.00792   0.00911   0.02841
 155   58310.4    171.5   0.000106329   0.00060  -0.00777  -0.01069  -0.02063
 156   58345.9    171.4   0.001891884   0.01067  -0.01128  -0.01239  -0.10195
 157   58387.7    171.3   0.001552910   0.00876  -0.00023  -0.00065  -0.09357
 158   58467.7    171.0   0.336813010   1.89648  -1.25108  -0.57557   0.00049
 159   58536.1    170.8   0.000738117   0.00415  -0.00085   0.00137  -0.06441
 160   58653.8    170.5   0.000014311   0.00008  -0.00004   0.00039  -0.00895
 161   58764.1    170.2   0.001131167   0.00634   0.00040   0.00076  -0.07960
 162   58878.9    169.8   0.317691142   1.77632  -1.16898  -0.64016  -0.00004
 163   58930.1    169.7   0.000003320   0.00002  -0.00086  -0.00024   0.00421
 164   59009.3    169.5   0.039177992   0.21857  -0.26051   0.38821   0.00008
 165   59127.0    169.1   0.000072002   0.00040   0.00014   0.00012   0.02002
 166   59166.4    169.0   0.381230190   2.12123  -1.25088  -0.74601  -0.00005
 167   59247.1    168.8   0.000561698   0.00312  -0.00639   0.05550  -0.00005
 168   59348.7    168.5   0.005316044   0.02949  -0.03083   0.16893  -0.00017
 169   59384.1    168.4   0.000000618   0.00000  -0.00043   0.00167   0.00068
 170   59562.4    167.9   0.000277576   0.00153   0.01041  -0.03776  -0.00001
 171   59601.7    167.8   0.012232803   0.06757  -0.22413  -0.13166  -0.00003
 172   59710.7    167.5   0.000011135   0.00006  -0.00011   0.00001  -0.00783
 173   59759.8    167.3   0.002041111   0.01124   0.00003  -0.00003  -0.10604
 174   60031.1    166.6   0.000000000   0.00000   0.00000  -0.00000   0.00000
 175   60031.1    166.6   0.000000000   0.00000  -0.00000   0.00000  -0.00000
 176   60031.1    166.6   0.000000000   0.00000  -0.00000   0.00000  -0.00000
 177   60031.1    166.6   0.000000000   0.00000  -0.00000   0.00000  -0.00000
 178   60031.1    166.6   0.000000000   0.00000   0.00000  -0.00000   0.00000
 179   60031.1    166.6   0.000000000   0.00000   0.00000  -0.00000   0.00000
 180   60039.8    166.6   0.049965680   0.27397   0.26828  -0.44944   0.00001
 181   60059.5    166.5   0.022674611   0.12429   0.17953  -0.30341   0.00001
 182   60102.0    166.4   0.000000341   0.00000   0.00031  -0.00037   0.00128
 183   60291.3    165.9   0.000000140   0.00000   0.00013  -0.00026  -0.00083
 184   60310.9    165.8   0.005465742   0.02984   0.08795  -0.14866   0.00002
 185   60353.9    165.7   0.000009033   0.00005   0.00013   0.00001  -0.00702
 186   60520.0    165.2   0.021531508   0.11713   0.29353   0.17597  -0.00001
 187   60526.1    165.2   0.000000849   0.00000   0.00169   0.00095   0.00093
 188   60601.1    165.0   0.000153719   0.00084  -0.00014   0.00000  -0.02890
 189   60644.9    164.9   0.000151269   0.00082   0.00042  -0.00026   0.02865
 190   60847.9    164.3   0.000168300   0.00091  -0.00005   0.00015   0.03018
 191   61120.5    163.6   0.006486170   0.03494   0.05771   0.17778  -0.00002
 192   61166.0    163.5   0.006833235   0.03678   0.12452  -0.14585  -0.00003
 193   61187.5    163.4   0.000035406   0.00019  -0.00033   0.00062   0.01378
 194   61236.9    163.3   0.098427189   0.52915  -0.63894  -0.34770  -0.00006
 195   61277.1    163.2   0.000000000   0.00000  -0.00000  -0.00000  -0.00000
 196   61277.1    163.2   0.000000000   0.00000   0.00000   0.00000   0.00000

Dispersion correction           -0.102366215
FINAL SINGLE POINT ENERGY      -920.245444299244

DIPOLE MOMENT
-------------
                                X             Y             Z
Electronic contribution:     -3.83617       6.45605      -0.00036
Nuclear contribution   :      4.28792      -7.21595       0.00041
                        -----------------------------------------
Total Dipole Moment    :      0.45176      -0.75990       0.00004
                        -----------------------------------------
Magnitude (a.u.)       :      0.88405
Magnitude (Debye)      :      2.24707

Rotational constants in cm-1:     0.011665     0.011070     0.005680
Rotational constants in MHz :   349.700509   331.877899   170.278091

                             ****ORCA TERMINATED NORMALLY****
TOTAL RUN TIME: 0 days 14 hours 48 minutes 52 seconds 872 msec
