                         Program Version 5.0.4 -  RELEASE  -
|  1> !M062X def2-tzvp PAL4 TIGHTOPT FREQ
|  2>
|  3> %freq
|  4> Temp 298.15,10,20,50,100,6000,8000,10000
|  5> end
|  6>
|  7> %geom
|  8> maxiter 5000
|  9> end
| 10>
| 11>
| 12>
| 13> * xyz 0 1
| 14>   C   2.45791983499341     -2.80268931379768     -0.00000793519644
| 15>   C   1.28608761308438     -3.49706883370209     -0.00003643606214
| 16>   C   0.03470547919465     -2.82650100714450     -0.00011895547508
| 17>   C   -1.19909611030651     -3.52926406052669     -0.00014738304165
| 18>   C   -2.38727532547159     -2.86387815648029     -0.00022974228995
| 19>   C   -2.43307513493588     -1.44447575303296     -0.00027036473986
| 20>   C   -3.65942351028343     -0.73056692575933     -0.00034869983218
| 21>   C   -3.68143184744779      0.63183680863156     -0.00038756598292
| 22>   C   -2.47654311552349      1.38171086633990     -0.00035715694906
| 23>   C   -2.47435650264592      2.81046534061019     -0.00039831731937
| 24>   C   -1.28561443050281      3.43802142880253     -0.00036151343355
| 25>   C   -0.02057223287027      2.83388218261706     -0.00029010794623
| 26>   C   1.21086686736911      3.53893902602452     -0.00025402239824
| 27>   C   2.39489324957599      2.86551829309080     -0.00018393811888
| 28>   C   2.43517090494280      1.44582754720977     -0.00014049013964
| 29>   C   3.65975900430544      0.72697243056351     -0.00006992784603
| 30>   C   3.67546036802878     -0.63516446298208     -0.00002698908555
| 31>   C   2.46811813995863     -1.38295180399054     -0.00005240219282
| 32>   C   1.24061543792698     -0.69496199420878     -0.00012711748511
| 33>   C   1.22474219035332      0.72698621586077     -0.00017741356338
| 34>   C   -0.01566516709535      1.42103164152461     -0.00024506128700
| 35>   C   -1.24356348643455      0.69923344199718     -0.00028346088976
| 36>   C   -1.22400277498297     -0.72338676000015     -0.00023734960533
| 37>   C   0.01693487392421     -1.41913103104816     -0.00016297130775
| 38>   H   3.40501735040542     -3.32906588787472      0.00005627444163
| 39>   H   1.29296308352502     -4.58060438188898      0.00000142672494
| 40>   H   -1.17896310310274     -4.61257131284734     -0.00011513591155
| 41>   H   -3.32129405982821     -3.41317602901623     -0.00025227227744
| 42>   H   -4.58586789409211     -1.29266910376159     -0.00037146429946
| 43>   H   -4.62408845924854      1.16575491725399     -0.00044556872067
| 44>   H   -3.41518424261775      3.34878172120577     -0.00045725814046
| 45>   H   1.18854626437870      4.62103847897618     -0.00028959104089
| 46>   H   4.58800492413600      1.28586263822177     -0.00004835142171
| 47>   H   4.61660270482137     -1.17213723898180      0.00002811587814
| 48>   **                         ****END OF INPUT****
 Total Charge           Charge          ....    0
 Multiplicity           Mult            ....    1
 Number of Electrons    NEL             ....  154
FINAL SINGLE POINT ENERGY      -920.393607941049
FINAL SINGLE POINT ENERGY      -920.401939240372
FINAL SINGLE POINT ENERGY      -920.406890944121
FINAL SINGLE POINT ENERGY      -920.407647013714
FINAL SINGLE POINT ENERGY      -920.408192571573
FINAL SINGLE POINT ENERGY      -920.408497545550
FINAL SINGLE POINT ENERGY      -920.408743135289
FINAL SINGLE POINT ENERGY      -920.408840241837
FINAL SINGLE POINT ENERGY      -920.408886047069
FINAL SINGLE POINT ENERGY      -920.408909212705
FINAL SINGLE POINT ENERGY      -920.408916446613
FINAL SINGLE POINT ENERGY      -920.408918081430
FINAL SINGLE POINT ENERGY      -920.408918662543
                    ***********************HURRAY********************

CARTESIAN COORDINATES (ANGSTROEM)
---------------------------------
  C      2.461606   -2.809541   -0.000010
  C      1.289956   -3.497322   -0.000040
  C      0.036107   -2.822924   -0.000119
  C     -1.193841   -3.524596   -0.000152
  C     -2.384656   -2.857817   -0.000225
  C     -2.430097   -1.442436   -0.000270
  C     -3.660594   -0.724081   -0.000343
  C     -3.684054    0.633883   -0.000387
  C     -2.476535    1.394391   -0.000356
  C     -2.489591    2.819568   -0.000402
  C     -1.268506    3.413823   -0.000362
  C     -0.101134    2.815457   -0.000291
  C      1.278331    3.606988   -0.000255
  C      2.298468    2.819056   -0.000188
  C      2.461778    1.425617   -0.000140
  C      3.681055    0.718049   -0.000065
  C      3.683488   -0.649229   -0.000024
  C      2.476586   -1.385675   -0.000051
  C      1.248389   -0.694405   -0.000128
  C      1.232088    0.725121   -0.000176
  C     -0.012101    1.410442   -0.000245
  C     -1.242477    0.702624   -0.000283
  C     -1.222201   -0.722231   -0.000235
  C      0.018669   -1.415552   -0.000164
  H      3.407633   -3.337459    0.000054
  H      1.292323   -4.580884   -0.000005
  H     -1.173836   -4.607831   -0.000117
  H     -3.318000   -3.408179   -0.000251
  H     -4.586220   -1.287593   -0.000368
  H     -4.627082    1.167238   -0.000444
  H     -3.439326    3.343182   -0.000465
  H      1.186541    4.676501   -0.000294
  H      4.606112    1.278414   -0.000042
  H      4.621511   -1.191000    0.000033

 Multiplicity           Mult            ....    1
 Number of Electrons    NEL             ....  154
 Basis Dimension        Dim             ....  804

ORBITAL ENERGIES
----------------

  NO   OCC          E(Eh)            E(eV)
   0   2.0000     -10.579990      -287.8962
   1   2.0000     -10.578833      -287.8647
   2   2.0000     -10.574883      -287.7572
   3   2.0000     -10.574593      -287.7493
   4   2.0000     -10.574202      -287.7387
   5   2.0000     -10.570355      -287.6340
   6   2.0000     -10.568534      -287.5844
   7   2.0000     -10.565297      -287.4963
   8   2.0000     -10.563240      -287.4404
   9   2.0000     -10.563079      -287.4360
  10   2.0000     -10.561958      -287.4055
  11   2.0000     -10.561668      -287.3976
  12   2.0000     -10.561141      -287.3832
  13   2.0000     -10.560032      -287.3531
  14   2.0000     -10.559567      -287.3404
  15   2.0000     -10.559252      -287.3319
  16   2.0000     -10.557435      -287.2824
  17   2.0000     -10.555210      -287.2219
  18   2.0000     -10.554070      -287.1908
  19   2.0000     -10.552693      -287.1534
  20   2.0000     -10.551795      -287.1289
  21   2.0000     -10.551627      -287.1244
  22   2.0000     -10.550805      -287.1020
  23   2.0000     -10.543183      -286.8946
  24   2.0000      -1.028848       -27.9964
  25   2.0000      -0.989352       -26.9216
  26   2.0000      -0.987598       -26.8739
  27   2.0000      -0.937988       -25.5240
  28   2.0000      -0.935272       -25.4501
  29   2.0000      -0.917126       -24.9563
  30   2.0000      -0.885709       -24.1014
  31   2.0000      -0.867012       -23.5926
  32   2.0000      -0.850873       -23.1534
  33   2.0000      -0.847593       -23.0642
  34   2.0000      -0.815632       -22.1945
  35   2.0000      -0.812678       -22.1141
  36   2.0000      -0.735348       -20.0098
  37   2.0000      -0.732737       -19.9388
  38   2.0000      -0.726710       -19.7748
  39   2.0000      -0.719126       -19.5684
  40   2.0000      -0.705545       -19.1989
  41   2.0000      -0.650931       -17.7127
  42   2.0000      -0.639930       -17.4134
  43   2.0000      -0.627507       -17.0753
  44   2.0000      -0.610966       -16.6252
  45   2.0000      -0.603288       -16.4163
  46   2.0000      -0.599498       -16.3132
  47   2.0000      -0.553581       -15.0637
  48   2.0000      -0.550014       -14.9667
  49   2.0000      -0.544756       -14.8236
  50   2.0000      -0.538264       -14.6469
  51   2.0000      -0.527394       -14.3511
  52   2.0000      -0.517999       -14.0955
  53   2.0000      -0.516139       -14.0449
  54   2.0000      -0.504046       -13.7158
  55   2.0000      -0.496130       -13.5004
  56   2.0000      -0.481431       -13.1004
  57   2.0000      -0.477900       -13.0043
  58   2.0000      -0.472443       -12.8558
  59   2.0000      -0.471224       -12.8227
  60   2.0000      -0.469166       -12.7666
  61   2.0000      -0.462691       -12.5905
  62   2.0000      -0.443347       -12.0641
  63   2.0000      -0.433491       -11.7959
  64   2.0000      -0.430964       -11.7271
  65   2.0000      -0.410792       -11.1782
  66   2.0000      -0.406472       -11.0607
  67   2.0000      -0.393540       -10.7088
  68   2.0000      -0.389709       -10.6045
  69   2.0000      -0.387953       -10.5567
  70   2.0000      -0.343246        -9.3402
  71   2.0000      -0.330739        -8.9999
  72   2.0000      -0.318288        -8.6611
  73   2.0000      -0.314485        -8.5576
  74   2.0000      -0.264448        -7.1960
  75   2.0000      -0.254107        -6.9146
  76   2.0000      -0.233703        -6.3594
  77   0.0000      -0.110554        -3.0083
  78   0.0000      -0.050452        -1.3729
  79   0.0000      -0.035451        -0.9647
  80   0.0000      -0.000695        -0.0189
  81   0.0000       0.003616         0.0984

MULLIKEN ATOMIC CHARGES
-----------------------
   0 C :   -0.196062
   1 C :   -0.176334
   2 C :    0.086876
   3 C :   -0.183122
   4 C :   -0.176698
   5 C :    0.092002
   6 C :   -0.191294
   7 C :   -0.174889
   8 C :    0.114242
   9 C :   -0.285136
  10 C :   -0.086795
  11 C :    0.121002
  12 C :   -0.310921
  13 C :    0.086077
  14 C :    0.035634
  15 C :   -0.221644
  16 C :   -0.151969
  17 C :    0.087269
  18 C :    0.045064
  19 C :    0.051234
  20 C :    0.017229
  21 C :   -0.035902
  22 C :    0.015504
  23 C :    0.025073
  24 H :    0.135896
  25 H :    0.135402
  26 H :    0.134530
  27 H :    0.135316
  28 H :    0.133882
  29 H :    0.135838
  30 H :    0.136615
  31 H :    0.183762
  32 H :    0.144417
  33 H :    0.137903
Sum of atomic charges:   -0.0000000

LOEWDIN ATOMIC CHARGES
----------------------
   0 C :   -0.099114
   1 C :   -0.095168
   2 C :   -0.092925
   3 C :   -0.100393
   4 C :   -0.097308
   5 C :   -0.093986
   6 C :   -0.099894
   7 C :   -0.098164
   8 C :   -0.081615
   9 C :   -0.117814
  10 C :   -0.018742
  11 C :   -0.096498
  12 C :   -0.059708
  13 C :    0.037853
  14 C :   -0.109001
  15 C :   -0.092688
  16 C :   -0.093470
  17 C :   -0.090482
  18 C :   -0.001389
  19 C :    0.004100
  20 C :   -0.010693
  21 C :   -0.001758
  22 C :   -0.005162
  23 C :   -0.003453
  24 H :    0.150773
  25 H :    0.151080
  26 H :    0.150280
  27 H :    0.150588
  28 H :    0.150602
  29 H :    0.150956
  30 H :    0.147354
  31 H :    0.160072
  32 H :    0.153806
  33 H :    0.151962

  Mayer bond orders larger than 0.100000
B(  0-C ,  1-C ) :   1.6649 B(  0-C , 17-C ) :   1.2182 B(  0-C , 24-H ) :   0.9332
B(  1-C ,  2-C ) :   1.2251 B(  1-C , 25-H ) :   0.9307 B(  2-C ,  3-C ) :   1.2617
B(  2-C , 23-C ) :   1.3076 B(  3-C ,  4-C ) :   1.6184 B(  3-C , 26-H ) :   0.9313
B(  4-C ,  5-C ) :   1.2631 B(  4-C , 27-H ) :   0.9320 B(  5-C ,  6-C ) :   1.2140
B(  5-C , 22-C ) :   1.3119 B(  6-C ,  7-C ) :   1.6718 B(  6-C , 28-H ) :   0.9347
B(  7-C ,  8-C ) :   1.2164 B(  7-C , 29-H ) :   0.9363 B(  8-C ,  9-C ) :   1.1681
B(  8-C , 21-C ) :   1.2851 B(  9-C , 10-C ) :   1.6471 B(  9-C , 30-H ) :   0.9584
B( 10-C , 11-C ) :   1.5540 B( 10-C , 13-C ) :   0.5167 B( 11-C , 12-C ) :   0.7242
B( 11-C , 20-C ) :   1.2366 B( 12-C , 13-C ) :   1.9471 B( 12-C , 31-H ) :   0.9584
B( 13-C , 14-C ) :   1.1825 B( 14-C , 15-C ) :   1.2908 B( 14-C , 19-C ) :   1.2773
B( 15-C , 16-C ) :   1.5631 B( 15-C , 32-H ) :   0.9444 B( 16-C , 17-C ) :   1.2781
B( 16-C , 33-H ) :   0.9305 B( 17-C , 18-C ) :   1.2999 B( 18-C , 19-C ) :   1.1992
B( 18-C , 23-C ) :   1.1442 B( 19-C , 20-C ) :   1.1682 B( 20-C , 21-C ) :   1.1889
B( 21-C , 22-C ) :   1.1529 B( 22-C , 23-C ) :   1.1737

FINAL SINGLE POINT ENERGY      -920.408918819046

DIPOLE MOMENT
-------------
                                X             Y             Z
Electronic contribution:      1.93661       6.28614      -0.00010
Nuclear contribution   :     -1.84074      -7.18138       0.00013
                        -----------------------------------------
Total Dipole Moment    :      0.09587      -0.89524       0.00003
                        -----------------------------------------
Magnitude (a.u.)       :      0.90036
Magnitude (Debye)      :      2.28854

VIBRATIONAL FREQUENCIES
-----------------------

Scaling factor for frequencies =  1.000000000  (already applied!)

   0:         0.00 cm**-1
   1:         0.00 cm**-1
   2:         0.00 cm**-1
   3:         0.00 cm**-1
   4:         0.00 cm**-1
   5:         0.00 cm**-1
   6:        83.06 cm**-1
   7:        90.01 cm**-1
   8:       118.03 cm**-1
   9:       164.01 cm**-1
  10:       221.61 cm**-1
  11:       246.32 cm**-1
  12:       272.99 cm**-1
  13:       305.73 cm**-1
  14:       307.95 cm**-1
  15:       311.89 cm**-1
  16:       359.03 cm**-1
  17:       373.70 cm**-1
  18:       379.68 cm**-1
  19:       392.51 cm**-1
  20:       420.41 cm**-1
  21:       448.48 cm**-1
  22:       451.00 cm**-1
  23:       489.46 cm**-1
  24:       493.77 cm**-1
  25:       505.49 cm**-1
  26:       508.69 cm**-1
  27:       527.96 cm**-1
  28:       553.57 cm**-1
  29:       576.08 cm**-1
  30:       581.92 cm**-1
  31:       597.39 cm**-1
  32:       632.66 cm**-1
  33:       652.55 cm**-1
  34:       666.71 cm**-1
  35:       681.07 cm**-1
  36:       682.15 cm**-1
  37:       691.40 cm**-1
  38:       741.46 cm**-1
  39:       758.93 cm**-1
  40:       773.50 cm**-1
  41:       790.94 cm**-1
  42:       798.76 cm**-1
  43:       835.29 cm**-1
  44:       837.07 cm**-1
  45:       841.89 cm**-1
  46:       867.91 cm**-1
  47:       869.66 cm**-1
  48:       882.52 cm**-1
  49:       896.37 cm**-1
  50:       923.53 cm**-1
  51:       944.37 cm**-1
  52:       981.63 cm**-1
  53:       989.22 cm**-1
  54:       995.09 cm**-1
  55:       999.75 cm**-1
  56:      1014.27 cm**-1
  57:      1029.32 cm**-1
  58:      1095.28 cm**-1
  59:      1141.29 cm**-1
  60:      1153.26 cm**-1
  61:      1171.76 cm**-1
  62:      1179.29 cm**-1
  63:      1195.85 cm**-1
  64:      1208.57 cm**-1
  65:      1224.81 cm**-1
  66:      1247.48 cm**-1
  67:      1252.04 cm**-1
  68:      1253.54 cm**-1
  69:      1276.73 cm**-1
  70:      1309.41 cm**-1
  71:      1330.59 cm**-1
  72:      1342.26 cm**-1
  73:      1373.39 cm**-1
  74:      1408.41 cm**-1
  75:      1426.43 cm**-1
  76:      1431.00 cm**-1
  77:      1446.09 cm**-1
  78:      1457.60 cm**-1
  79:      1463.10 cm**-1
  80:      1493.82 cm**-1
  81:      1500.12 cm**-1
  82:      1529.55 cm**-1
  83:      1555.03 cm**-1
  84:      1572.67 cm**-1
  85:      1589.61 cm**-1
  86:      1600.81 cm**-1
  87:      1673.80 cm**-1
  88:      1686.49 cm**-1
  89:      1693.13 cm**-1
  90:      1710.89 cm**-1
  91:      1786.18 cm**-1
  92:      3188.63 cm**-1
  93:      3202.67 cm**-1
  94:      3203.53 cm**-1
  95:      3204.29 cm**-1
  96:      3212.46 cm**-1
  97:      3219.58 cm**-1
  98:      3220.24 cm**-1
  99:      3220.84 cm**-1
 100:      3237.36 cm**-1
 101:      3324.30 cm**-1

IR SPECTRUM
-----------

 Mode   freq       eps      Int      T**2         TX        TY        TZ
       cm**-1   L/(mol*cm) km/mol    a.u.
----------------------------------------------------------------------------
  6:     83.06   0.000016    0.08  0.000061  (-0.000041 -0.000031 -0.007791)
  7:     90.01   0.000005    0.02  0.000016  ( 0.000032 -0.000017  0.004027)
  8:    118.03   0.000605    3.06  0.001600  ( 0.000010  0.000009 -0.040000)
  9:    164.01   0.000127    0.64  0.000242  (-0.000010 -0.000034  0.015554)
 10:    221.61   0.000193    0.97  0.000272  ( 0.000031 -0.000005 -0.016478)
 11:    246.32   0.000361    1.82  0.000457  (-0.000018  0.000026  0.021382)
 12:    272.99   0.000532    2.69  0.000608  (-0.000017 -0.000006 -0.024664)
 13:    305.73   0.000001    0.00  0.000001  (-0.000027 -0.000002 -0.000974)
 14:    307.95   0.000344    1.74  0.000349  ( 0.000015  0.000009  0.018671)
 15:    311.89   0.068547  346.41  0.068586  ( 0.259306 -0.036694  0.000013)
 16:    359.03   0.002883   14.57  0.002506  (-0.042761  0.026031 -0.000001)
 17:    373.70   0.000942    4.76  0.000787  ( 0.022350 -0.016941 -0.000005)
 18:    379.68   0.003269   16.52  0.002687  ( 0.000027  0.000002 -0.051836)
 19:    392.51   0.000100    0.51  0.000080  ( 0.003136  0.008358 -0.000002)
 20:    420.41   0.043366  219.15  0.032190  ( 0.175068 -0.039253  0.000010)
 21:    448.48   0.010147   51.28  0.007061  ( 0.083941  0.003819  0.000003)
 22:    451.00   0.000116    0.59  0.000081  (-0.000015 -0.000013 -0.008973)
 23:    489.46   0.004062   20.53  0.002590  ( 0.050403 -0.007014  0.000005)
 24:    493.77   0.004074   20.59  0.002575  (-0.049425  0.011492 -0.000008)
 25:    505.49   0.002345   11.85  0.001448  ( 0.037682  0.005290  0.000025)
 26:    508.69   0.001457    7.36  0.000894  (-0.000037  0.000018  0.029899)
 27:    527.96   0.002133   10.78  0.001261  ( 0.000007  0.000011  0.035508)
 28:    553.57   0.000053    0.27  0.000030  ( 0.000018 -0.000034  0.005441)
 29:    576.08   0.001657    8.37  0.000898  (-0.000011  0.000002  0.029959)
 30:    581.92   0.005278   26.67  0.002830  (-0.048274  0.022362 -0.000005)
 31:    597.39   0.005732   28.97  0.002994  (-0.054711  0.001008 -0.000004)
 32:    632.66   0.000238    1.20  0.000118  ( 0.000016  0.000001 -0.010842)
 33:    652.55   0.001090    5.51  0.000521  (-0.020025  0.010965 -0.000001)
 34:    666.71   0.000149    0.75  0.000070  ( 0.000005 -0.000001  0.008340)
 35:    681.07   0.000176    0.89  0.000081  ( 0.000019  0.000002 -0.008985)
 36:    682.15   0.001501    7.59  0.000687  ( 0.025359 -0.006618 -0.000002)
 37:    691.40   0.001078    5.45  0.000487  (-0.018294  0.012325 -0.000002)
 38:    741.46   0.003796   19.18  0.001597  (-0.000011 -0.000002  0.039968)
 39:    758.93   0.002033   10.27  0.000836  ( 0.009635 -0.027260  0.000005)
 40:    773.50   0.003280   16.57  0.001323  ( 0.032453 -0.016429  0.000003)
 41:    790.94   0.000013    0.07  0.000005  ( 0.000002 -0.000017  0.002278)
 42:    798.76   0.001853    9.36  0.000724  (-0.000004 -0.000034  0.026905)
 43:    835.29   0.000250    1.26  0.000093  ( 0.000017 -0.000013  0.009659)
 44:    837.07   0.000451    2.28  0.000168  ( 0.011511  0.005984 -0.000001)
 45:    841.89   0.000416    2.10  0.000154  (-0.000001 -0.000010 -0.012412)
 46:    867.91   0.000048    0.24  0.000017  (-0.000001 -0.000011  0.004171)
 47:    869.66   0.003902   19.72  0.001400  ( 0.037007  0.005543  0.000002)
 48:    882.52   0.010122   51.15  0.003579  ( 0.000018  0.000016  0.059828)
 49:    896.37   0.010668   53.91  0.003714  (-0.000024 -0.000005  0.060943)
 50:    923.53   0.000987    4.99  0.000334  (-0.015334  0.009920  0.000002)
 51:    944.37   0.000010    0.05  0.000003  (-0.000031  0.000008 -0.001818)
 52:    981.63   0.000008    0.04  0.000003  (-0.000000  0.000002 -0.001595)
 53:    989.22   0.000037    0.19  0.000012  (-0.000002  0.000003  0.003420)
 54:    995.09   0.000008    0.04  0.000003  ( 0.000005  0.000009 -0.001589)
 55:    999.75   0.000005    0.02  0.000002  (-0.000011  0.000013  0.001233)
 56:   1014.27   0.000777    3.92  0.000239  ( 0.015235 -0.002614  0.000003)
 57:   1029.32   0.005336   26.97  0.001618  (-0.039110  0.009389 -0.000005)
 58:   1095.28   0.001212    6.12  0.000345  (-0.018567 -0.000711 -0.000002)
 59:   1141.29   0.001890    9.55  0.000517  ( 0.022642 -0.002039  0.000000)
 60:   1153.26   0.000098    0.50  0.000027  (-0.002919 -0.004252  0.000001)
 61:   1171.76   0.000350    1.77  0.000093  (-0.007941 -0.005487  0.000000)
 62:   1179.29   0.000632    3.19  0.000167  ( 0.009063  0.009225 -0.000000)
 63:   1195.85   0.004205   21.25  0.001097  (-0.024690  0.022086 -0.000002)
 64:   1208.57   0.002797   14.14  0.000722  (-0.026656  0.003428 -0.000002)
 65:   1224.81   0.000961    4.86  0.000245  ( 0.011153 -0.010972  0.000001)
 66:   1247.48   0.000967    4.89  0.000242  (-0.008415  0.013077  0.000000)
 67:   1252.04   0.001334    6.74  0.000332  (-0.017491  0.005146 -0.000001)
 68:   1253.54   0.000619    3.13  0.000154  ( 0.012395  0.000596  0.000001)
 69:   1276.73   0.000459    2.32  0.000112  (-0.010590  0.000232 -0.000001)
 70:   1309.41   0.000469    2.37  0.000112  (-0.008738 -0.005954 -0.000001)
 71:   1330.59   0.007762   39.23  0.001820  (-0.042400 -0.004764 -0.000002)
 72:   1342.26   0.000432    2.18  0.000101  ( 0.008200  0.005768  0.000000)
 73:   1373.39   0.005894   29.79  0.001339  ( 0.035750 -0.007829  0.000001)
 74:   1408.41   0.000198    1.00  0.000044  ( 0.006539 -0.001064  0.000001)
 75:   1426.43   0.002874   14.53  0.000629  (-0.023321  0.009217 -0.000001)
 76:   1431.00   0.004994   25.24  0.001089  (-0.032296  0.006789 -0.000002)
 77:   1446.09   0.001395    7.05  0.000301  ( 0.017084 -0.003038  0.000001)
 78:   1457.60   0.000254    1.29  0.000054  ( 0.006751 -0.002985  0.000000)
 79:   1463.10   0.001052    5.31  0.000224  (-0.011084  0.010073 -0.000001)
 80:   1493.82   0.004773   24.12  0.000997  (-0.029901  0.010146 -0.000002)
 81:   1500.12   0.000897    4.54  0.000187  ( 0.005521  0.012498 -0.000000)
 82:   1529.55   0.006352   32.10  0.001296  ( 0.035991 -0.000708  0.000002)
 83:   1555.03   0.001899    9.60  0.000381  (-0.000842 -0.019504  0.000001)
 84:   1572.67   0.002191   11.07  0.000435  (-0.020552 -0.003504 -0.000001)
 85:   1589.61   0.000888    4.49  0.000174  (-0.011493 -0.006506 -0.000000)
 86:   1600.81   0.002827   14.29  0.000551  ( 0.020630 -0.011203  0.000001)
 87:   1673.80   0.001082    5.47  0.000202  (-0.009788  0.010296 -0.000001)
 88:   1686.49   0.001301    6.58  0.000241  (-0.013468 -0.007707 -0.000001)
 89:   1693.13   0.001489    7.52  0.000274  (-0.015611  0.005541 -0.000001)
 90:   1710.89   0.004566   23.07  0.000833  (-0.028772  0.002218 -0.000001)
 91:   1786.18   0.020712  104.67  0.003619  (-0.059134 -0.011037 -0.000003)
 92:   3188.63   0.006007   30.36  0.000588  ( 0.024111 -0.002563  0.000001)
 93:   3202.67   0.000045    0.23  0.000004  (-0.001308  0.001642 -0.000000)
 94:   3203.53   0.000129    0.65  0.000013  (-0.003367 -0.001131  0.000000)
 95:   3204.29   0.000108    0.54  0.000010  (-0.002425  0.002145 -0.000000)
 96:   3212.46   0.000307    1.55  0.000030  (-0.005391  0.000863 -0.000000)
 97:   3219.58   0.000232    1.17  0.000022  (-0.000143 -0.004739  0.000000)
 98:   3220.24   0.004254   21.50  0.000412  (-0.020105  0.002838 -0.000001)
 99:   3220.84   0.002724   13.77  0.000264  (-0.003456 -0.015875  0.000000)
100:   3237.36   0.001013    5.12  0.000098  ( 0.009700 -0.001888  0.000000)
101:   3324.30   0.010964   55.41  0.001029  ( 0.001846 -0.032029  0.000001)

--------------------------
THERMOCHEMISTRY AT 10000.00K
--------------------------

Temperature         ... 10000.00 K
Pressure            ... 1.00 atm
Total Mass          ... 298.34 AMU

Throughout the following assumptions are being made:
  (1) The electronic state is orbitally nondegenerate
  (2) There are no thermally accessible electronically excited states
  (3) Hindered rotations indicated by low frequency modes are not
      treated as such but are treated as vibrations and this may
      cause some error
  (4) All equations used are the standard statistical mechanics
      equations for an ideal gas
  (5) All vibrations are strictly harmonic

freq.      83.06  E(vib)   ...      19.75
freq.      90.01  E(vib)   ...      19.74
freq.     118.03  E(vib)   ...      19.70
freq.     164.01  E(vib)   ...      19.64
freq.     221.61  E(vib)   ...      19.56
freq.     246.32  E(vib)   ...      19.52
freq.     272.99  E(vib)   ...      19.48
freq.     305.73  E(vib)   ...      19.44
freq.     307.95  E(vib)   ...      19.44
freq.     311.89  E(vib)   ...      19.43
freq.     359.03  E(vib)   ...      19.36
freq.     373.70  E(vib)   ...      19.34
freq.     379.68  E(vib)   ...      19.33
freq.     392.51  E(vib)   ...      19.32
freq.     420.41  E(vib)   ...      19.28
freq.     448.48  E(vib)   ...      19.24
freq.     451.00  E(vib)   ...      19.23
freq.     489.46  E(vib)   ...      19.18
freq.     493.77  E(vib)   ...      19.17
freq.     505.49  E(vib)   ...      19.16
freq.     508.69  E(vib)   ...      19.15
freq.     527.96  E(vib)   ...      19.13
freq.     553.57  E(vib)   ...      19.09
freq.     576.08  E(vib)   ...      19.06
freq.     581.92  E(vib)   ...      19.05
freq.     597.39  E(vib)   ...      19.03
freq.     632.66  E(vib)   ...      18.98
freq.     652.55  E(vib)   ...      18.95
freq.     666.71  E(vib)   ...      18.93
freq.     681.07  E(vib)   ...      18.91
freq.     682.15  E(vib)   ...      18.91
freq.     691.40  E(vib)   ...      18.90
freq.     741.46  E(vib)   ...      18.83
freq.     758.93  E(vib)   ...      18.81
freq.     773.50  E(vib)   ...      18.79
freq.     790.94  E(vib)   ...      18.76
freq.     798.76  E(vib)   ...      18.75
freq.     835.29  E(vib)   ...      18.70
freq.     837.07  E(vib)   ...      18.70
freq.     841.89  E(vib)   ...      18.69
freq.     867.91  E(vib)   ...      18.66
freq.     869.66  E(vib)   ...      18.66
freq.     882.52  E(vib)   ...      18.64
freq.     896.37  E(vib)   ...      18.62
freq.     923.53  E(vib)   ...      18.58
freq.     944.37  E(vib)   ...      18.55
freq.     981.63  E(vib)   ...      18.50
freq.     989.22  E(vib)   ...      18.49
freq.     995.09  E(vib)   ...      18.48
freq.     999.75  E(vib)   ...      18.48
freq.    1014.27  E(vib)   ...      18.46
freq.    1029.32  E(vib)   ...      18.44
freq.    1095.28  E(vib)   ...      18.35
freq.    1141.29  E(vib)   ...      18.29
freq.    1153.26  E(vib)   ...      18.27
freq.    1171.76  E(vib)   ...      18.24
freq.    1179.29  E(vib)   ...      18.23
freq.    1195.85  E(vib)   ...      18.21
freq.    1208.57  E(vib)   ...      18.19
freq.    1224.81  E(vib)   ...      18.17
freq.    1247.48  E(vib)   ...      18.14
freq.    1252.04  E(vib)   ...      18.14
freq.    1253.54  E(vib)   ...      18.13
freq.    1276.73  E(vib)   ...      18.10
freq.    1309.41  E(vib)   ...      18.06
freq.    1330.59  E(vib)   ...      18.03
freq.    1342.26  E(vib)   ...      18.02
freq.    1373.39  E(vib)   ...      17.97
freq.    1408.41  E(vib)   ...      17.93
freq.    1426.43  E(vib)   ...      17.90
freq.    1431.00  E(vib)   ...      17.90
freq.    1446.09  E(vib)   ...      17.88
freq.    1457.60  E(vib)   ...      17.86
freq.    1463.10  E(vib)   ...      17.85
freq.    1493.82  E(vib)   ...      17.81
freq.    1500.12  E(vib)   ...      17.81
freq.    1529.55  E(vib)   ...      17.77
freq.    1555.03  E(vib)   ...      17.73
freq.    1572.67  E(vib)   ...      17.71
freq.    1589.61  E(vib)   ...      17.69
freq.    1600.81  E(vib)   ...      17.67
freq.    1673.80  E(vib)   ...      17.58
freq.    1686.49  E(vib)   ...      17.56
freq.    1693.13  E(vib)   ...      17.55
freq.    1710.89  E(vib)   ...      17.53
freq.    1786.18  E(vib)   ...      17.43
freq.    3188.63  E(vib)   ...      15.66
freq.    3202.67  E(vib)   ...      15.64
freq.    3203.53  E(vib)   ...      15.64
freq.    3204.29  E(vib)   ...      15.64
freq.    3212.46  E(vib)   ...      15.63
freq.    3219.58  E(vib)   ...      15.62
freq.    3220.24  E(vib)   ...      15.62
freq.    3220.84  E(vib)   ...      15.62
freq.    3237.36  E(vib)   ...      15.60
freq.    3324.30  E(vib)   ...      15.50

------------
INNER ENERGY
------------

The inner energy is: U= E(el) + E(ZPE) + E(vib) + E(rot) + E(trans)
    E(el)   - is the total energy from the electronic structure calculation
              = E(kin-el) + E(nuc-el) + E(el-el) + E(nuc-nuc)
    E(ZPE)  - the the zero temperature vibrational energy from the frequency calculation
    E(vib)  - the the finite temperature correction to E(ZPE) due to population
              of excited vibrational states
    E(rot)  - is the rotational thermal energy
    E(trans)- is the translational thermal energy

Summary of contributions to the inner energy U:
Electronic energy                ...   -920.40891882 Eh
Zero point energy                ...      0.25418192 Eh     159.50 kcal/mol
Thermal vibrational correction   ...      2.79667341 Eh    1754.94 kcal/mol
Thermal rotational correction    ...      0.04750198 Eh      29.81 kcal/mol
Thermal translational correction ...      0.04750198 Eh      29.81 kcal/mol
-----------------------------------------------------------------------
Total thermal energy                   -917.26305954 Eh

Summary of corrections to the electronic energy:
(perhaps to be used in another calculation)
Total thermal correction                  2.89167736 Eh    1814.55 kcal/mol
Non-thermal (ZPE) correction              0.25418192 Eh     159.50 kcal/mol
-----------------------------------------------------------------------
Total correction                          3.14585928 Eh    1974.05 kcal/mol

--------
ENTHALPY
--------

The enthalpy is H = U + kB*T
                kB is Boltzmann's constant
Total free energy                 ...   -917.26305954 Eh
Thermal Enthalpy correction       ...      0.03166893 Eh      19.87 kcal/mol
-----------------------------------------------------------------------
Total Enthalpy                    ...   -917.23139061 Eh

Note: Rotational entropy computed according to Herzberg
Infrared and Raman Spectra, Chapter V,1, Van Nostrand Reinhold, 1945
Point Group:  Cs, Symmetry Number:   1
Rotational constants in cm-1:     0.011551     0.011260     0.005702

                             ****ORCA TERMINATED NORMALLY****
TOTAL RUN TIME: 0 days 6 hours 59 minutes 58 seconds 700 msec
