                         Program Version 5.0.4 -  RELEASE  -
|  1> !M062X def2-tzvp PAL4 TIGHTOPT FREQ
|  2>
|  3> %freq
|  4> Temp 298.15,10,20,50,100,6000,8000,10000
|  5> end
|  6>
|  7> %geom
|  8> maxiter 5000
|  9> end
| 10>
| 11>
| 12>
| 13>
| 14>
| 15> * xyz 0 1
| 16>   C   2.45791983499341     -2.80268931379768     -0.00000793519644
| 17>   C   1.28608761308438     -3.49706883370209     -0.00003643606214
| 18>   C   0.03470547919465     -2.82650100714450     -0.00011895547508
| 19>   C   -1.19909611030651     -3.52926406052669     -0.00014738304165
| 20>   C   -2.38727532547159     -2.86387815648029     -0.00022974228995
| 21>   C   -2.43307513493588     -1.44447575303296     -0.00027036473986
| 22>   C   -3.65942351028343     -0.73056692575933     -0.00034869983218
| 23>   C   -3.68143184744779      0.63183680863156     -0.00038756598292
| 24>   C   -2.47654311552349      1.38171086633990     -0.00035715694906
| 25>   C   -2.47435650264592      2.81046534061019     -0.00039831731937
| 26>   C   -1.28561443050281      3.43802142880253     -0.00036151343355
| 27>   C   -0.02057223287027      2.83388218261706     -0.00029010794623
| 28>   C   1.21086686736911      3.53893902602452     -0.00025402239824
| 29>   C   2.39489324957599      2.86551829309080     -0.00018393811888
| 30>   C   2.43517090494280      1.44582754720977     -0.00014049013964
| 31>   C   3.65975900430544      0.72697243056351     -0.00006992784603
| 32>   C   3.67546036802878     -0.63516446298208     -0.00002698908555
| 33>   C   2.46811813995863     -1.38295180399054     -0.00005240219282
| 34>   C   1.24061543792698     -0.69496199420878     -0.00012711748511
| 35>   C   1.22474219035332      0.72698621586077     -0.00017741356338
| 36>   C   -0.01566516709535      1.42103164152461     -0.00024506128700
| 37>   C   -1.24356348643455      0.69923344199718     -0.00028346088976
| 38>   C   -1.22400277498297     -0.72338676000015     -0.00023734960533
| 39>   C   0.01693487392421     -1.41913103104816     -0.00016297130775
| 40>   H   3.40501735040542     -3.32906588787472      0.00005627444163
| 41>   H   1.29296308352502     -4.58060438188898      0.00000142672494
| 42>   H   -1.17896310310274     -4.61257131284734     -0.00011513591155
| 43>   H   -3.32129405982821     -3.41317602901623     -0.00025227227744
| 44>   H   -4.58586789409211     -1.29266910376159     -0.00037146429946
| 45>   H   -4.62408845924854      1.16575491725399     -0.00044556872067
| 46>   H   -3.41518424261775      3.34878172120577     -0.00045725814046
| 47>   H   3.33130215861300      3.41052642430950     -0.00015763965944
| 48>   H   4.58800492413600      1.28586263822177     -0.00004835142171
| 49>   H   4.61660270482137     -1.17213723898180      0.00002811587814
| 50>   **                         ****END OF INPUT****
 Total Charge           Charge          ....    0
 Multiplicity           Mult            ....    1
 Number of Electrons    NEL             ....  154
FINAL SINGLE POINT ENERGY      -920.408453358841
FINAL SINGLE POINT ENERGY      -920.416945248033
FINAL SINGLE POINT ENERGY      -920.421371879791
FINAL SINGLE POINT ENERGY      -920.421710715604
FINAL SINGLE POINT ENERGY      -920.421763124888
FINAL SINGLE POINT ENERGY      -920.421783642835
FINAL SINGLE POINT ENERGY      -920.421795622852
FINAL SINGLE POINT ENERGY      -920.421806498225
FINAL SINGLE POINT ENERGY      -920.421817168720
FINAL SINGLE POINT ENERGY      -920.421824947850
FINAL SINGLE POINT ENERGY      -920.421828170176
FINAL SINGLE POINT ENERGY      -920.421829134743
                    ***********************HURRAY********************

CARTESIAN COORDINATES (ANGSTROEM)
---------------------------------
  C      2.450198   -2.793212   -0.000016
  C      1.281507   -3.489213   -0.000046
  C      0.035130   -2.814412   -0.000121
  C     -1.193979   -3.520459   -0.000149
  C     -2.379959   -2.854170   -0.000219
  C     -2.424910   -1.436173   -0.000265
  C     -3.661221   -0.743585   -0.000334
  C     -3.694375    0.615326   -0.000386
  C     -2.491712    1.364442   -0.000360
  C     -2.500536    2.788278   -0.000418
  C     -1.327893    3.421152   -0.000380
  C     -0.036483    2.944650   -0.000300
  C      1.242346    3.454358   -0.000248
  C      2.430202    2.850283   -0.000168
  C      2.456477    1.426783   -0.000137
  C      3.677426    0.708328   -0.000063
  C      3.678522   -0.650958   -0.000028
  C      2.459807   -1.374519   -0.000055
  C      1.234667   -0.675519   -0.000129
  C      1.223965    0.753339   -0.000177
  C     -0.018545    1.468169   -0.000245
  C     -1.242759    0.722155   -0.000286
  C     -1.217601   -0.706468   -0.000233
  C      0.017436   -1.404369   -0.000165
  H      3.399285   -3.315702    0.000044
  H      1.285854   -4.572531   -0.000012
  H     -1.171151   -4.603516   -0.000116
  H     -3.315750   -3.400137   -0.000241
  H     -4.579397   -1.318803   -0.000356
  H     -4.636101    1.150072   -0.000440
  H     -3.446494    3.319666   -0.000484
  H      3.363089    3.404347   -0.000132
  H      4.605408    1.266647   -0.000040
  H      4.610692   -1.203164    0.000026

 Multiplicity           Mult            ....    1
 Number of Electrons    NEL             ....  154
 Basis Dimension        Dim             ....  804

ORBITAL ENERGIES
----------------

  NO   OCC          E(Eh)            E(eV)
   0   2.0000     -10.604772      -288.5705
   1   2.0000     -10.588128      -288.1176
   2   2.0000     -10.569108      -287.6001
   3   2.0000     -10.569047      -287.5984
   4   2.0000     -10.568378      -287.5802
   5   2.0000     -10.568308      -287.5783
   6   2.0000     -10.566565      -287.5309
   7   2.0000     -10.566509      -287.5293
   8   2.0000     -10.564925      -287.4862
   9   2.0000     -10.564631      -287.4782
  10   2.0000     -10.562743      -287.4269
  11   2.0000     -10.561832      -287.4021
  12   2.0000     -10.561743      -287.3996
  13   2.0000     -10.561728      -287.3992
  14   2.0000     -10.555600      -287.2325
  15   2.0000     -10.555576      -287.2318
  16   2.0000     -10.555460      -287.2287
  17   2.0000     -10.555337      -287.2253
  18   2.0000     -10.554128      -287.1924
  19   2.0000     -10.554087      -287.1913
  20   2.0000     -10.553548      -287.1766
  21   2.0000     -10.553523      -287.1760
  22   2.0000     -10.552146      -287.1385
  23   2.0000     -10.552113      -287.1376
  24   2.0000      -1.029799       -28.0223
  25   2.0000      -0.990806       -26.9612
  26   2.0000      -0.990364       -26.9492
  27   2.0000      -0.939640       -25.5689
  28   2.0000      -0.938635       -25.5416
  29   2.0000      -0.918187       -24.9851
  30   2.0000      -0.886533       -24.1238
  31   2.0000      -0.871427       -23.7127
  32   2.0000      -0.851970       -23.1833
  33   2.0000      -0.845529       -23.0080
  34   2.0000      -0.819884       -22.3102
  35   2.0000      -0.811752       -22.0889
  36   2.0000      -0.735440       -20.0123
  37   2.0000      -0.732823       -19.9411
  38   2.0000      -0.727409       -19.7938
  39   2.0000      -0.722049       -19.6479
  40   2.0000      -0.708017       -19.2661
  41   2.0000      -0.652650       -17.7595
  42   2.0000      -0.641779       -17.4637
  43   2.0000      -0.628845       -17.1117
  44   2.0000      -0.616178       -16.7671
  45   2.0000      -0.607320       -16.5260
  46   2.0000      -0.594415       -16.1748
  47   2.0000      -0.556329       -15.1385
  48   2.0000      -0.553911       -15.0727
  49   2.0000      -0.541743       -14.7416
  50   2.0000      -0.539318       -14.6756
  51   2.0000      -0.525298       -14.2941
  52   2.0000      -0.518756       -14.1161
  53   2.0000      -0.516373       -14.0512
  54   2.0000      -0.501729       -13.6527
  55   2.0000      -0.496043       -13.4980
  56   2.0000      -0.487444       -13.2640
  57   2.0000      -0.481859       -13.1121
  58   2.0000      -0.474547       -12.9131
  59   2.0000      -0.472322       -12.8525
  60   2.0000      -0.471246       -12.8233
  61   2.0000      -0.466671       -12.6988
  62   2.0000      -0.440720       -11.9926
  63   2.0000      -0.437083       -11.8936
  64   2.0000      -0.431452       -11.7404
  65   2.0000      -0.410436       -11.1685
  66   2.0000      -0.409435       -11.1413
  67   2.0000      -0.395569       -10.7640
  68   2.0000      -0.391073       -10.6416
  69   2.0000      -0.387498       -10.5444
  70   2.0000      -0.340316        -9.2605
  71   2.0000      -0.334729        -9.1085
  72   2.0000      -0.317320        -8.6347
  73   2.0000      -0.316845        -8.6218
  74   2.0000      -0.260694        -7.0938
  75   2.0000      -0.257029        -6.9941
  76   2.0000      -0.234841        -6.3904
  77   0.0000      -0.099526        -2.7082
  78   0.0000      -0.048898        -1.3306
  79   0.0000      -0.038486        -1.0473
  80   0.0000      -0.003622        -0.0986
  81   0.0000      -0.001296        -0.0353

MULLIKEN ATOMIC CHARGES
-----------------------
   0 C :   -0.186003
   1 C :   -0.181929
   2 C :    0.081429
   3 C :   -0.185945
   4 C :   -0.183570
   5 C :    0.098377
   6 C :   -0.175648
   7 C :   -0.188262
   8 C :    0.176585
   9 C :   -0.247996
  10 C :   -0.019501
  11 C :   -0.167264
  12 C :   -0.026487
  13 C :   -0.244143
  14 C :    0.174054
  15 C :   -0.189058
  16 C :   -0.172978
  17 C :    0.096149
  18 C :    0.018394
  19 C :   -0.044474
  20 C :    0.189310
  21 C :   -0.048500
  22 C :    0.020773
  23 C :    0.023985
  24 H :    0.135411
  25 H :    0.135008
  26 H :    0.134743
  27 H :    0.135405
  28 H :    0.136610
  29 H :    0.138582
  30 H :    0.145751
  31 H :    0.145701
  32 H :    0.138439
  33 H :    0.137050
Sum of atomic charges:    0.0000000

LOEWDIN ATOMIC CHARGES
----------------------
   0 C :   -0.098093
   1 C :   -0.099995
   2 C :   -0.090888
   3 C :   -0.099930
   4 C :   -0.098065
   5 C :   -0.093368
   6 C :   -0.094715
   7 C :   -0.099698
   8 C :   -0.087437
   9 C :   -0.124875
  10 C :    0.039747
  11 C :   -0.135810
  12 C :    0.038960
  13 C :   -0.124954
  14 C :   -0.087507
  15 C :   -0.099713
  16 C :   -0.094658
  17 C :   -0.093355
  18 C :   -0.001868
  19 C :   -0.009147
  20 C :    0.046338
  21 C :   -0.009179
  22 C :   -0.001877
  23 C :   -0.008191
  24 H :    0.150956
  25 H :    0.150676
  26 H :    0.150659
  27 H :    0.150953
  28 H :    0.151576
  29 H :    0.151686
  30 H :    0.159280
  31 H :    0.159231
  32 H :    0.151730
  33 H :    0.151531

  Mayer bond orders larger than 0.100000
B(  0-C ,  1-C ) :   1.6420 B(  0-C , 17-C ) :   1.2433 B(  0-C , 24-H ) :   0.9317
B(  1-C ,  2-C ) :   1.2494 B(  1-C , 25-H ) :   0.9286 B(  2-C ,  3-C ) :   1.2468
B(  2-C , 23-C ) :   1.3072 B(  3-C ,  4-C ) :   1.6400 B(  3-C , 26-H ) :   0.9305
B(  4-C ,  5-C ) :   1.2431 B(  4-C , 27-H ) :   0.9315 B(  5-C ,  6-C ) :   1.2405
B(  5-C , 22-C ) :   1.3024 B(  6-C ,  7-C ) :   1.6415 B(  6-C , 28-H ) :   0.9328
B(  7-C ,  8-C ) :   1.2412 B(  7-C , 29-H ) :   0.9286 B(  8-C ,  9-C ) :   1.0798
B(  8-C , 21-C ) :   1.2902 B(  9-C , 10-C ) :   1.6676 B(  9-C , 30-H ) :   0.9506
B( 10-C , 11-C ) :   1.3676 B( 10-C , 12-C ) :   0.5225 B( 10-C , 21-C ) :   0.1187
B( 11-C , 12-C ) :   1.3665 B( 11-C , 20-C ) :   1.0384 B( 12-C , 13-C ) :   1.6685
B( 12-C , 19-C ) :   0.1177 B( 13-C , 14-C ) :   1.0832 B( 13-C , 31-H ) :   0.9488
B( 14-C , 15-C ) :   1.2428 B( 14-C , 19-C ) :   1.2907 B( 15-C , 16-C ) :   1.6438
B( 15-C , 32-H ) :   0.9276 B( 16-C , 17-C ) :   1.2428 B( 16-C , 33-H ) :   0.9305
B( 17-C , 18-C ) :   1.3024 B( 18-C , 19-C ) :   1.1450 B( 18-C , 23-C ) :   1.1706
B( 19-C , 20-C ) :   1.2013 B( 20-C , 21-C ) :   1.2014 B( 21-C , 22-C ) :   1.1440
B( 22-C , 23-C ) :   1.1682

FINAL SINGLE POINT ENERGY      -920.421829086857

DIPOLE MOMENT
-------------
                                X             Y             Z
Electronic contribution:     -0.09356       7.24690      -0.00024
Nuclear contribution   :      0.10550      -8.42636       0.00027
                        -----------------------------------------
Total Dipole Moment    :      0.01195      -1.17946       0.00004
                        -----------------------------------------
Magnitude (a.u.)       :      1.17952
Magnitude (Debye)      :      2.99810

VIBRATIONAL FREQUENCIES
-----------------------

Scaling factor for frequencies =  1.000000000  (already applied!)

   0:         0.00 cm**-1
   1:         0.00 cm**-1
   2:         0.00 cm**-1
   3:         0.00 cm**-1
   4:         0.00 cm**-1
   5:         0.00 cm**-1
   6:        54.65 cm**-1
   7:        83.15 cm**-1
   8:       136.48 cm**-1
   9:       140.81 cm**-1
  10:       216.72 cm**-1
  11:       224.49 cm**-1
  12:       280.12 cm**-1
  13:       296.96 cm**-1
  14:       303.17 cm**-1
  15:       319.25 cm**-1
  16:       374.92 cm**-1
  17:       386.21 cm**-1
  18:       387.57 cm**-1
  19:       403.11 cm**-1
  20:       427.84 cm**-1
  21:       459.53 cm**-1
  22:       493.49 cm**-1
  23:       493.84 cm**-1
  24:       499.75 cm**-1
  25:       526.39 cm**-1
  26:       526.79 cm**-1
  27:       536.13 cm**-1
  28:       560.56 cm**-1
  29:       577.50 cm**-1
  30:       589.65 cm**-1
  31:       637.70 cm**-1
  32:       651.26 cm**-1
  33:       665.76 cm**-1
  34:       670.67 cm**-1
  35:       691.60 cm**-1
  36:       710.77 cm**-1
  37:       730.43 cm**-1
  38:       782.73 cm**-1
  39:       782.88 cm**-1
  40:       792.37 cm**-1
  41:       814.19 cm**-1
  42:       817.23 cm**-1
  43:       824.33 cm**-1
  44:       831.60 cm**-1
  45:       865.55 cm**-1
  46:       867.18 cm**-1
  47:       884.80 cm**-1
  48:       890.40 cm**-1
  49:       913.52 cm**-1
  50:       949.97 cm**-1
  51:       973.49 cm**-1
  52:       980.12 cm**-1
  53:       988.23 cm**-1
  54:       994.91 cm**-1
  55:       999.24 cm**-1
  56:      1017.00 cm**-1
  57:      1031.73 cm**-1
  58:      1123.97 cm**-1
  59:      1124.34 cm**-1
  60:      1169.16 cm**-1
  61:      1174.52 cm**-1
  62:      1185.69 cm**-1
  63:      1191.54 cm**-1
  64:      1204.85 cm**-1
  65:      1212.58 cm**-1
  66:      1242.96 cm**-1
  67:      1253.64 cm**-1
  68:      1255.99 cm**-1
  69:      1257.91 cm**-1
  70:      1320.84 cm**-1
  71:      1325.83 cm**-1
  72:      1348.94 cm**-1
  73:      1389.97 cm**-1
  74:      1406.78 cm**-1
  75:      1415.82 cm**-1
  76:      1438.00 cm**-1
  77:      1446.65 cm**-1
  78:      1453.86 cm**-1
  79:      1468.68 cm**-1
  80:      1469.92 cm**-1
  81:      1483.53 cm**-1
  82:      1527.41 cm**-1
  83:      1536.10 cm**-1
  84:      1556.08 cm**-1
  85:      1592.16 cm**-1
  86:      1603.63 cm**-1
  87:      1675.49 cm**-1
  88:      1675.64 cm**-1
  89:      1691.64 cm**-1
  90:      1696.19 cm**-1
  91:      1714.04 cm**-1
  92:      3186.71 cm**-1
  93:      3187.25 cm**-1
  94:      3204.21 cm**-1
  95:      3205.03 cm**-1
  96:      3206.85 cm**-1
  97:      3206.88 cm**-1
  98:      3220.64 cm**-1
  99:      3221.69 cm**-1
 100:      3224.06 cm**-1
 101:      3224.20 cm**-1

IR SPECTRUM
-----------

 Mode   freq       eps      Int      T**2         TX        TY        TZ
       cm**-1   L/(mol*cm) km/mol    a.u.
----------------------------------------------------------------------------
  6:     54.65   0.000001    0.01  0.000008  ( 0.000049 -0.000030  0.002747)
  7:     83.15   0.000141    0.71  0.000528  (-0.000013 -0.000022 -0.022984)
  8:    136.48   0.000916    4.63  0.002095  (-0.000027 -0.000013  0.045772)
  9:    140.81   0.000007    0.04  0.000016  (-0.000014 -0.000013  0.004061)
 10:    216.72   0.000057    0.29  0.000082  (-0.000037  0.000002  0.009078)
 11:    224.49   0.045112  227.98  0.062710  (-0.250395 -0.003446 -0.000013)
 12:    280.12   0.000000    0.00  0.000000  (-0.000026 -0.000003  0.000119)
 13:    296.96   0.000002    0.01  0.000002  (-0.000001  0.000012 -0.001291)
 14:    303.17   0.000000    0.00  0.000000  (-0.000010  0.000019 -0.000018)
 15:    319.25   0.000155    0.78  0.000151  ( 0.000001 -0.000004  0.012306)
 16:    374.92   0.000187    0.94  0.000155  (-0.000402  0.012456 -0.000001)
 17:    386.21   0.011754   59.40  0.009497  ( 0.097448  0.001137  0.000005)
 18:    387.57   0.001804    9.12  0.001453  ( 0.038115  0.000201  0.000002)
 19:    403.11   0.000657    3.32  0.000509  (-0.001103 -0.022530  0.000001)
 20:    427.84   0.000000    0.00  0.000000  ( 0.000020  0.000024  0.000562)
 21:    459.53   0.000051    0.26  0.000035  ( 0.000010  0.000002  0.005907)
 22:    493.49   0.000067    0.34  0.000042  ( 0.005149  0.003987  0.000001)
 23:    493.84   0.000411    2.08  0.000260  (-0.016081  0.001160 -0.000002)
 24:    499.75   0.000002    0.01  0.000001  ( 0.000014  0.000022  0.001120)
 25:    526.39   0.000143    0.72  0.000085  ( 0.000249 -0.009197 -0.000198)
 26:    526.79   0.003092   15.62  0.001832  (-0.000020 -0.000043  0.042797)
 27:    536.13   0.013188   66.64  0.007676  ( 0.087605  0.001182  0.000013)
 28:    560.56   0.000000    0.00  0.000000  (-0.000003 -0.000016 -0.000413)
 29:    577.50   0.000461    2.33  0.000249  (-0.000148 -0.015781  0.000000)
 30:    589.65   0.001727    8.73  0.000914  ( 0.000005  0.000005 -0.030235)
 31:    637.70   0.000005    0.03  0.000002  ( 0.000004 -0.000008  0.001558)
 32:    651.26   0.000089    0.45  0.000043  (-0.006520 -0.000116  0.000001)
 33:    665.76   0.002311   11.68  0.001083  (-0.000001 -0.000003  0.032909)
 34:    670.67   0.000028    0.14  0.000013  ( 0.000015 -0.000001 -0.003590)
 35:    691.60   0.000025    0.13  0.000011  (-0.000091  0.003347  0.000001)
 36:    710.77   0.000125    0.63  0.000055  ( 0.000139 -0.007396  0.000001)
 37:    730.43   0.000889    4.49  0.000380  ( 0.019482  0.000275  0.000002)
 38:    782.73   0.000152    0.77  0.000060  (-0.000013 -0.000169  0.007773)
 39:    782.88   0.003107   15.70  0.001238  (-0.000504  0.035187  0.000035)
 40:    792.37   0.000000    0.00  0.000000  (-0.000036 -0.000004 -0.000186)
 41:    814.19   0.000519    2.62  0.000199  (-0.000002 -0.000004 -0.014100)
 42:    817.23   0.000114    0.58  0.000044  (-0.000028  0.000012  0.006603)
 43:    824.33   0.000991    5.01  0.000375  ( 0.000137 -0.019365  0.000001)
 44:    831.60   0.000002    0.01  0.000001  (-0.000965  0.000010  0.000000)
 45:    865.55   0.000000    0.00  0.000000  (-0.000007 -0.000005  0.000013)
 46:    867.18   0.000000    0.00  0.000000  (-0.000016 -0.000006  0.000352)
 47:    884.80   0.000176    0.89  0.000062  (-0.000006  0.000010 -0.007885)
 48:    890.40   0.024175  122.17  0.008473  (-0.000015  0.000009  0.092048)
 49:    913.52   0.004815   24.33  0.001645  (-0.040555 -0.000489 -0.000002)
 50:    949.97   0.000010    0.05  0.000003  (-0.000064  0.000037 -0.001837)
 51:    973.49   0.000561    2.84  0.000180  (-0.000002  0.013412 -0.000001)
 52:    980.12   0.000000    0.00  0.000000  (-0.000011 -0.000017  0.000154)
 53:    988.23   0.000063    0.32  0.000020  ( 0.000020 -0.000011  0.004462)
 54:    994.91   0.000007    0.04  0.000002  ( 0.000012  0.000037  0.001477)
 55:    999.24   0.000000    0.00  0.000000  ( 0.000002 -0.000020 -0.000204)
 56:   1017.00   0.000776    3.92  0.000238  (-0.015432 -0.000271 -0.000002)
 57:   1031.73   0.001867    9.44  0.000565  ( 0.000529 -0.023759  0.000002)
 58:   1123.97   0.000321    1.62  0.000089  (-0.000169 -0.009440 -0.000000)
 59:   1124.34   0.000036    0.18  0.000010  ( 0.001959 -0.002489  0.000000)
 60:   1169.16   0.000048    0.24  0.000013  ( 0.003571  0.000425  0.000001)
 61:   1174.52   0.002155   10.89  0.000572  ( 0.000418 -0.023923  0.000002)
 62:   1185.69   0.003018   15.25  0.000794  (-0.000325  0.028182 -0.000001)
 63:   1191.54   0.000086    0.43  0.000022  (-0.004657 -0.000853 -0.000001)
 64:   1204.85   0.000408    2.06  0.000106  ( 0.010265  0.000435  0.000000)
 65:   1212.58   0.001373    6.94  0.000353  ( 0.000042 -0.018795  0.000000)
 66:   1242.96   0.000361    1.83  0.000091  (-0.000285  0.009521 -0.000000)
 67:   1253.64   0.001202    6.07  0.000299  ( 0.017288  0.000466  0.000001)
 68:   1255.99   0.000799    4.04  0.000198  (-0.014088  0.000046 -0.000001)
 69:   1257.91   0.000003    0.01  0.000001  (-0.000304 -0.000776  0.000000)
 70:   1320.84   0.019289   97.48  0.004557  (-0.067508  0.000213 -0.000002)
 71:   1325.83   0.002321   11.73  0.000546  ( 0.002832  0.023203 -0.000000)
 72:   1348.94   0.000387    1.95  0.000089  (-0.009444 -0.000487 -0.000001)
 73:   1389.97   0.000978    4.94  0.000220  (-0.000021  0.014817  0.000000)
 74:   1406.78   0.000345    1.74  0.000077  (-0.008749  0.000078 -0.000001)
 75:   1415.82   0.000170    0.86  0.000038  (-0.000196 -0.006124  0.000000)
 76:   1438.00   0.003681   18.60  0.000799  (-0.028261 -0.000431 -0.000001)
 77:   1446.65   0.000473    2.39  0.000102  ( 0.000289 -0.010099  0.000001)
 78:   1453.86   0.001781    9.00  0.000382  (-0.019548 -0.000316 -0.000002)
 79:   1468.68   0.001703    8.61  0.000362  (-0.019009 -0.000684 -0.000000)
 80:   1469.92   0.000044    0.22  0.000009  ( 0.001431 -0.002693 -0.000000)
 81:   1483.53   0.001430    7.23  0.000301  ( 0.000635 -0.017331  0.000001)
 82:   1527.41   0.000947    4.78  0.000193  ( 0.013908  0.000026  0.000001)
 83:   1536.10   0.003433   17.35  0.000697  ( 0.026395  0.000798  0.000001)
 84:   1556.08   0.004339   21.93  0.000870  ( 0.001016 -0.029479  0.000001)
 85:   1592.16   0.000939    4.75  0.000184  ( 0.013569  0.000066  0.000001)
 86:   1603.63   0.000265    1.34  0.000052  (-0.000144 -0.007176  0.000000)
 87:   1675.49   0.005298   26.77  0.000987  (-0.028121 -0.013998 -0.000001)
 88:   1675.64   0.004257   21.52  0.000793  ( 0.016694 -0.022676  0.000001)
 89:   1691.64   0.000013    0.07  0.000002  ( 0.000772  0.001371 -0.000000)
 90:   1696.19   0.001434    7.25  0.000264  (-0.016241  0.000379 -0.000001)
 91:   1714.04   0.000231    1.17  0.000042  ( 0.000233  0.006481 -0.000000)
 92:   3186.71   0.001376    6.95  0.000135  (-0.011602 -0.000351 -0.000001)
 93:   3187.25   0.000040    0.20  0.000004  (-0.001053  0.001669 -0.000000)
 94:   3204.21   0.000159    0.80  0.000015  (-0.003918 -0.000370 -0.000000)
 95:   3205.03   0.000053    0.27  0.000005  (-0.000688  0.002157  0.000000)
 96:   3206.85   0.000036    0.18  0.000003  ( 0.000673 -0.001740  0.000000)
 97:   3206.88   0.000073    0.37  0.000007  (-0.002630 -0.000423  0.000000)
 98:   3220.64   0.000643    3.25  0.000062  ( 0.007786 -0.001290  0.000000)
 99:   3221.69   0.002741   13.85  0.000265  ( 0.000272  0.016291 -0.000000)
100:   3224.06   0.004978   25.16  0.000482  ( 0.021935  0.000861  0.000001)
101:   3224.20   0.000227    1.15  0.000022  (-0.003522  0.003089 -0.000000)

--------------------------
THERMOCHEMISTRY AT 10000.00K
--------------------------

Temperature         ... 10000.00 K
Pressure            ... 1.00 atm
Total Mass          ... 298.34 AMU

Throughout the following assumptions are being made:
  (1) The electronic state is orbitally nondegenerate
  (2) There are no thermally accessible electronically excited states
  (3) Hindered rotations indicated by low frequency modes are not
      treated as such but are treated as vibrations and this may
      cause some error
  (4) All equations used are the standard statistical mechanics
      equations for an ideal gas
  (5) All vibrations are strictly harmonic

freq.      54.65  E(vib)   ...      19.79
freq.      83.15  E(vib)   ...      19.75
freq.     136.48  E(vib)   ...      19.68
freq.     140.81  E(vib)   ...      19.67
freq.     216.72  E(vib)   ...      19.56
freq.     224.49  E(vib)   ...      19.55
freq.     280.12  E(vib)   ...      19.47
freq.     296.96  E(vib)   ...      19.45
freq.     303.17  E(vib)   ...      19.44
freq.     319.25  E(vib)   ...      19.42
freq.     374.92  E(vib)   ...      19.34
freq.     386.21  E(vib)   ...      19.33
freq.     387.57  E(vib)   ...      19.32
freq.     403.11  E(vib)   ...      19.30
freq.     427.84  E(vib)   ...      19.27
freq.     459.53  E(vib)   ...      19.22
freq.     493.49  E(vib)   ...      19.18
freq.     493.84  E(vib)   ...      19.17
freq.     499.75  E(vib)   ...      19.17
freq.     526.39  E(vib)   ...      19.13
freq.     526.79  E(vib)   ...      19.13
freq.     536.13  E(vib)   ...      19.12
freq.     560.56  E(vib)   ...      19.08
freq.     577.50  E(vib)   ...      19.06
freq.     589.65  E(vib)   ...      19.04
freq.     637.70  E(vib)   ...      18.97
freq.     651.26  E(vib)   ...      18.96
freq.     665.76  E(vib)   ...      18.94
freq.     670.67  E(vib)   ...      18.93
freq.     691.60  E(vib)   ...      18.90
freq.     710.77  E(vib)   ...      18.87
freq.     730.43  E(vib)   ...      18.85
freq.     782.73  E(vib)   ...      18.77
freq.     782.88  E(vib)   ...      18.77
freq.     792.37  E(vib)   ...      18.76
freq.     814.19  E(vib)   ...      18.73
freq.     817.23  E(vib)   ...      18.73
freq.     824.33  E(vib)   ...      18.72
freq.     831.60  E(vib)   ...      18.71
freq.     865.55  E(vib)   ...      18.66
freq.     867.18  E(vib)   ...      18.66
freq.     884.80  E(vib)   ...      18.63
freq.     890.40  E(vib)   ...      18.63
freq.     913.52  E(vib)   ...      18.60
freq.     949.97  E(vib)   ...      18.55
freq.     973.49  E(vib)   ...      18.51
freq.     980.12  E(vib)   ...      18.50
freq.     988.23  E(vib)   ...      18.49
freq.     994.91  E(vib)   ...      18.48
freq.     999.24  E(vib)   ...      18.48
freq.    1017.00  E(vib)   ...      18.45
freq.    1031.73  E(vib)   ...      18.43
freq.    1123.97  E(vib)   ...      18.31
freq.    1124.34  E(vib)   ...      18.31
freq.    1169.16  E(vib)   ...      18.25
freq.    1174.52  E(vib)   ...      18.24
freq.    1185.69  E(vib)   ...      18.23
freq.    1191.54  E(vib)   ...      18.22
freq.    1204.85  E(vib)   ...      18.20
freq.    1212.58  E(vib)   ...      18.19
freq.    1242.96  E(vib)   ...      18.15
freq.    1253.64  E(vib)   ...      18.13
freq.    1255.99  E(vib)   ...      18.13
freq.    1257.91  E(vib)   ...      18.13
freq.    1320.84  E(vib)   ...      18.04
freq.    1325.83  E(vib)   ...      18.04
freq.    1348.94  E(vib)   ...      18.01
freq.    1389.97  E(vib)   ...      17.95
freq.    1406.78  E(vib)   ...      17.93
freq.    1415.82  E(vib)   ...      17.92
freq.    1438.00  E(vib)   ...      17.89
freq.    1446.65  E(vib)   ...      17.88
freq.    1453.86  E(vib)   ...      17.87
freq.    1468.68  E(vib)   ...      17.85
freq.    1469.92  E(vib)   ...      17.85
freq.    1483.53  E(vib)   ...      17.83
freq.    1527.41  E(vib)   ...      17.77
freq.    1536.10  E(vib)   ...      17.76
freq.    1556.08  E(vib)   ...      17.73
freq.    1592.16  E(vib)   ...      17.68
freq.    1603.63  E(vib)   ...      17.67
freq.    1675.49  E(vib)   ...      17.57
freq.    1675.64  E(vib)   ...      17.57
freq.    1691.64  E(vib)   ...      17.55
freq.    1696.19  E(vib)   ...      17.55
freq.    1714.04  E(vib)   ...      17.52
freq.    3186.71  E(vib)   ...      15.66
freq.    3187.25  E(vib)   ...      15.66
freq.    3204.21  E(vib)   ...      15.64
freq.    3205.03  E(vib)   ...      15.64
freq.    3206.85  E(vib)   ...      15.64
freq.    3206.88  E(vib)   ...      15.64
freq.    3220.64  E(vib)   ...      15.62
freq.    3221.69  E(vib)   ...      15.62
freq.    3224.06  E(vib)   ...      15.62
freq.    3224.20  E(vib)   ...      15.62

------------
INNER ENERGY
------------

The inner energy is: U= E(el) + E(ZPE) + E(vib) + E(rot) + E(trans)
    E(el)   - is the total energy from the electronic structure calculation
              = E(kin-el) + E(nuc-el) + E(el-el) + E(nuc-nuc)
    E(ZPE)  - the the zero temperature vibrational energy from the frequency calculation
    E(vib)  - the the finite temperature correction to E(ZPE) due to population
              of excited vibrational states
    E(rot)  - is the rotational thermal energy
    E(trans)- is the translational thermal energy

Summary of contributions to the inner energy U:
Electronic energy                ...   -920.42182909 Eh
Zero point energy                ...      0.25465491 Eh     159.80 kcal/mol
Thermal vibrational correction   ...      2.79616227 Eh    1754.61 kcal/mol
Thermal rotational correction    ...      0.04750198 Eh      29.81 kcal/mol
Thermal translational correction ...      0.04750198 Eh      29.81 kcal/mol
-----------------------------------------------------------------------
Total thermal energy                   -917.27600795 Eh

Summary of corrections to the electronic energy:
(perhaps to be used in another calculation)
Total thermal correction                  2.89116623 Eh    1814.23 kcal/mol
Non-thermal (ZPE) correction              0.25465491 Eh     159.80 kcal/mol
-----------------------------------------------------------------------
Total correction                          3.14582114 Eh    1974.03 kcal/mol

--------
ENTHALPY
--------

The enthalpy is H = U + kB*T
                kB is Boltzmann's constant
Total free energy                 ...   -917.27600795 Eh
Thermal Enthalpy correction       ...      0.03166893 Eh      19.87 kcal/mol
-----------------------------------------------------------------------
Total Enthalpy                    ...   -917.24433902 Eh

Note: Rotational entropy computed according to Herzberg
Infrared and Raman Spectra, Chapter V,1, Van Nostrand Reinhold, 1945
Point Group:  Cs, Symmetry Number:   1
Rotational constants in cm-1:     0.011663     0.011161     0.005703

                             ****ORCA TERMINATED NORMALLY****
TOTAL RUN TIME: 0 days 7 hours 22 minutes 34 seconds 328 msec
