                         Program Version 5.0.4 -  RELEASE  -
|  1> !M062X def2-tzvp PAL4 TIGHTOPT FREQ
|  2>
|  3> %freq
|  4> Temp 298.15,10,20,50,100,6000,8000,10000
|  5> end
|  6>
|  7> %geom
|  8> maxiter 6000
|  9> end
| 10>
| 11>
| 12>
| 13>
| 14>
| 15> * xyz 0 1
| 16>   C   2.45791983499341     -2.80268931379768     -0.00000793519644
| 17>   C   1.28608761308438     -3.49706883370209     -0.00003643606214
| 18>   C   0.03470547919465     -2.82650100714450     -0.00011895547508
| 19>   C   -1.19909611030651     -3.52926406052669     -0.00014738304165
| 20>   C   -2.38727532547159     -2.86387815648029     -0.00022974228995
| 21>   C   -2.43307513493588     -1.44447575303296     -0.00027036473986
| 22>   C   -3.65942351028343     -0.73056692575933     -0.00034869983218
| 23>   C   -3.68143184744779      0.63183680863156     -0.00038756598292
| 24>   C   -2.47654311552349      1.38171086633990     -0.00035715694906
| 25>   C   -2.47435650264592      2.81046534061019     -0.00039831731937
| 26>   C   -1.28561443050281      3.43802142880253     -0.00036151343355
| 27>   C   -0.02057223287027      2.83388218261706     -0.00029010794623
| 28>   C   1.21086686736911      3.53893902602452     -0.00025402239824
| 29>   C   2.39489324957599      2.86551829309080     -0.00018393811888
| 30>   C   2.43517090494280      1.44582754720977     -0.00014049013964
| 31>   C   3.65975900430544      0.72697243056351     -0.00006992784603
| 32>   C   3.67546036802878     -0.63516446298208     -0.00002698908555
| 33>   C   2.46811813995863     -1.38295180399054     -0.00005240219282
| 34>   C   1.24061543792698     -0.69496199420878     -0.00012711748511
| 35>   C   1.22474219035332      0.72698621586077     -0.00017741356338
| 36>   C   -0.01566516709535      1.42103164152461     -0.00024506128700
| 37>   C   -1.24356348643455      0.69923344199718     -0.00028346088976
| 38>   C   -1.22400277498297     -0.72338676000015     -0.00023734960533
| 39>   C   0.01693487392421     -1.41913103104816     -0.00016297130775
| 40>   H   1.29296308352502     -4.58060438188898      0.00000142672494
| 41>   H   -1.17896310310274     -4.61257131284734     -0.00011513591155
| 42>   H   -3.32129405982821     -3.41317602901623     -0.00025227227744
| 43>   H   -4.58586789409211     -1.29266910376159     -0.00037146429946
| 44>   H   -4.62408845924854      1.16575491725399     -0.00044556872067
| 45>   H   -3.41518424261775      3.34878172120577     -0.00045725814046
| 46>   H   1.18854626437870      4.62103847897618     -0.00028959104089
| 47>   H   3.33130215861300      3.41052642430950     -0.00015763965944
| 48>   H   4.58800492413600      1.28586263822177     -0.00004835142171
| 49>   H   4.61660270482137     -1.17213723898180      0.00002811587814
| 50>   **                         ****END OF INPUT****
 Total Charge           Charge          ....    0
 Multiplicity           Mult            ....    1
 Number of Electrons    NEL             ....  154
FINAL SINGLE POINT ENERGY      -920.371031050203
FINAL SINGLE POINT ENERGY      -920.374545152855
FINAL SINGLE POINT ENERGY      -920.376258173051
FINAL SINGLE POINT ENERGY      -920.376322186447
FINAL SINGLE POINT ENERGY      -920.376364198787
FINAL SINGLE POINT ENERGY      -920.376384889218
FINAL SINGLE POINT ENERGY      -920.376404384606
FINAL SINGLE POINT ENERGY      -920.376409746395
FINAL SINGLE POINT ENERGY      -920.376411196313
FINAL SINGLE POINT ENERGY      -920.376411441580
                    ***********************HURRAY********************

CARTESIAN COORDINATES (ANGSTROEM)
---------------------------------
  C      2.382797   -2.754023   -0.000045
  C      1.284735   -3.510841    0.000024
  C      0.018737   -2.830433   -0.000135
  C     -1.210946   -3.535920   -0.000169
  C     -2.396952   -2.865968   -0.000232
  C     -2.437247   -1.447814   -0.000266
  C     -3.663840   -0.734917   -0.000335
  C     -3.685534    0.627119   -0.000367
  C     -2.476949    1.368720   -0.000351
  C     -2.469319    2.806249   -0.000478
  C     -1.279055    3.407598   -0.000338
  C     -0.009707    2.842776   -0.000249
  C      1.223717    3.542454   -0.000152
  C      2.405441    2.868893   -0.000120
  C      2.443760    1.450538   -0.000137
  C      3.671507    0.739324   -0.000128
  C      3.698215   -0.620718   -0.000128
  C      2.492902   -1.368602   -0.000097
  C      1.235796   -0.693313   -0.000119
  C      1.234005    0.732532   -0.000177
  C     -0.017311    1.415390   -0.000247
  C     -1.242742    0.693725   -0.000279
  C     -1.226181   -0.728997   -0.000232
  C      0.015312   -1.423463   -0.000179
  H      1.295511   -4.596511    0.000214
  H     -1.189889   -4.618781   -0.000144
  H     -3.333171   -3.411968   -0.000249
  H     -4.589869   -1.298041   -0.000357
  H     -4.625508    1.165179   -0.000416
  H     -3.417023    3.335937   -0.000686
  H      1.194611    4.623636   -0.000151
  H      3.342744    3.411982   -0.000076
  H      4.595439    1.304872   -0.000116
  H      4.632690   -1.165423   -0.000109

 Multiplicity           Mult            ....    1
 Number of Electrons    NEL             ....  154
 Basis Dimension        Dim             ....  804

ORBITAL ENERGIES
----------------

  NO   OCC          E(Eh)            E(eV)
   0   2.0000     -10.576264      -287.7948
   1   2.0000     -10.576111      -287.7906
   2   2.0000     -10.574087      -287.7355
   3   2.0000     -10.573900      -287.7305
   4   2.0000     -10.571702      -287.6706
   5   2.0000     -10.571338      -287.6607
   6   2.0000     -10.571293      -287.6595
   7   2.0000     -10.571100      -287.6542
   8   2.0000     -10.570898      -287.6488
   9   2.0000     -10.566482      -287.5286
  10   2.0000     -10.566020      -287.5160
  11   2.0000     -10.564963      -287.4873
  12   2.0000     -10.564784      -287.4824
  13   2.0000     -10.561784      -287.4008
  14   2.0000     -10.558911      -287.3226
  15   2.0000     -10.558593      -287.3139
  16   2.0000     -10.556634      -287.2606
  17   2.0000     -10.556613      -287.2600
  18   2.0000     -10.556000      -287.2434
  19   2.0000     -10.555857      -287.2395
  20   2.0000     -10.555283      -287.2239
  21   2.0000     -10.555259      -287.2232
  22   2.0000     -10.554650      -287.2066
  23   2.0000     -10.554459      -287.2014
  24   2.0000      -1.030585       -28.0436
  25   2.0000      -0.991094       -26.9690
  26   2.0000      -0.990410       -26.9504
  27   2.0000      -0.939037       -25.5525
  28   2.0000      -0.938830       -25.5469
  29   2.0000      -0.918970       -25.0064
  30   2.0000      -0.886920       -24.1343
  31   2.0000      -0.869997       -23.6738
  32   2.0000      -0.853844       -23.2343
  33   2.0000      -0.846711       -23.0402
  34   2.0000      -0.816689       -22.2232
  35   2.0000      -0.814722       -22.1697
  36   2.0000      -0.735116       -20.0035
  37   2.0000      -0.730753       -19.8848
  38   2.0000      -0.728931       -19.8352
  39   2.0000      -0.723597       -19.6901
  40   2.0000      -0.708815       -19.2878
  41   2.0000      -0.651748       -17.7350
  42   2.0000      -0.642357       -17.4794
  43   2.0000      -0.626832       -17.0570
  44   2.0000      -0.616468       -16.7749
  45   2.0000      -0.604022       -16.4363
  46   2.0000      -0.599574       -16.3152
  47   2.0000      -0.559066       -15.2130
  48   2.0000      -0.549704       -14.9582
  49   2.0000      -0.545141       -14.8341
  50   2.0000      -0.537803       -14.6344
  51   2.0000      -0.529147       -14.3988
  52   2.0000      -0.519351       -14.1322
  53   2.0000      -0.508131       -13.8270
  54   2.0000      -0.506239       -13.7755
  55   2.0000      -0.498037       -13.5523
  56   2.0000      -0.489049       -13.3077
  57   2.0000      -0.481140       -13.0925
  58   2.0000      -0.472572       -12.8593
  59   2.0000      -0.471232       -12.8229
  60   2.0000      -0.470904       -12.8140
  61   2.0000      -0.464662       -12.6441
  62   2.0000      -0.443916       -12.0796
  63   2.0000      -0.439903       -11.9704
  64   2.0000      -0.426887       -11.6162
  65   2.0000      -0.410336       -11.1658
  66   2.0000      -0.409526       -11.1438
  67   2.0000      -0.398237       -10.8366
  68   2.0000      -0.391284       -10.6474
  69   2.0000      -0.390648       -10.6301
  70   2.0000      -0.341296        -9.2871
  71   2.0000      -0.334130        -9.0921
  72   2.0000      -0.318385        -8.6637
  73   2.0000      -0.317087        -8.6284
  74   2.0000      -0.260341        -7.0842
  75   2.0000      -0.259600        -7.0641
  76   2.0000      -0.201096        -5.4721
  77   0.0000      -0.149915        -4.0794
  78   0.0000      -0.045905        -1.2491
  79   0.0000      -0.042052        -1.1443
  80   0.0000      -0.003810        -0.1037
  81   0.0000       0.002082         0.0567

MULLIKEN ATOMIC CHARGES
-----------------------
   0 C :    0.022324
   1 C :   -0.315488
   2 C :    0.144948
   3 C :   -0.177546
   4 C :   -0.183479
   5 C :    0.091646
   6 C :   -0.177828
   7 C :   -0.181258
   8 C :    0.152050
   9 C :   -0.315902
  10 C :    0.023248
  11 C :    0.045690
  12 C :   -0.238970
  13 C :   -0.167274
  14 C :    0.092652
  15 C :   -0.165939
  16 C :   -0.234153
  17 C :    0.045595
  18 C :    0.096446
  19 C :    0.077431
  20 C :    0.099822
  21 C :   -0.062657
  22 C :   -0.014748
  23 C :   -0.061044
  24 H :    0.146145
  25 H :    0.137817
  26 H :    0.136453
  27 H :    0.136091
  28 H :    0.137355
  29 H :    0.146573
  30 H :    0.143874
  31 H :    0.137855
  32 H :    0.137184
  33 H :    0.145088
Sum of atomic charges:   -0.0000000

LOEWDIN ATOMIC CHARGES
----------------------
   0 C :    0.034257
   1 C :   -0.124926
   2 C :   -0.081126
   3 C :   -0.101532
   4 C :   -0.095420
   5 C :   -0.095364
   6 C :   -0.095308
   7 C :   -0.101514
   8 C :   -0.080979
   9 C :   -0.124610
  10 C :    0.035115
  11 C :   -0.117761
  12 C :   -0.090387
  13 C :   -0.095712
  14 C :   -0.091066
  15 C :   -0.095751
  16 C :   -0.090170
  17 C :   -0.117740
  18 C :    0.011421
  19 C :   -0.004007
  20 C :    0.011567
  21 C :   -0.009925
  22 C :   -0.001830
  23 C :   -0.009913
  24 H :    0.157898
  25 H :    0.151144
  26 H :    0.151251
  27 H :    0.151290
  28 H :    0.151157
  29 H :    0.157940
  30 H :    0.153818
  31 H :    0.152172
  32 H :    0.152171
  33 H :    0.153838

  Mayer bond orders larger than 0.100000
B(  0-C ,  1-C ) :   1.7784 B(  0-C , 10-C ) :   0.5807 B(  0-C , 17-C ) :   1.2017
B(  1-C ,  2-C ) :   1.0888 B(  1-C , 24-H ) :   0.9350 B(  2-C ,  3-C ) :   1.2451
B(  2-C , 23-C ) :   1.3213 B(  3-C ,  4-C ) :   1.6359 B(  3-C , 25-H ) :   0.9302
B(  4-C ,  5-C ) :   1.2406 B(  4-C , 26-H ) :   0.9317 B(  5-C ,  6-C ) :   1.2424
B(  5-C , 22-C ) :   1.3031 B(  6-C ,  7-C ) :   1.6311 B(  6-C , 27-H ) :   0.9308
B(  7-C ,  8-C ) :   1.2401 B(  7-C , 28-H ) :   0.9348 B(  8-C ,  9-C ) :   1.0847
B(  8-C , 21-C ) :   1.3184 B(  9-C , 10-C ) :   1.7763 B(  9-C , 29-H ) :   0.9355
B( 10-C , 11-C ) :   1.2000 B( 11-C , 12-C ) :   1.2436 B( 11-C , 20-C ) :   1.2892
B( 12-C , 13-C ) :   1.6033 B( 12-C , 30-H ) :   0.9483 B( 13-C , 14-C ) :   1.2317
B( 13-C , 31-H ) :   0.9359 B( 14-C , 15-C ) :   1.2351 B( 14-C , 19-C ) :   1.3327
B( 15-C , 16-C ) :   1.6039 B( 15-C , 32-H ) :   0.9340 B( 16-C , 17-C ) :   1.2487
B( 16-C , 33-H ) :   0.9446 B( 17-C , 18-C ) :   1.2881 B( 18-C , 19-C ) :   1.1008
B( 18-C , 23-C ) :   1.2030 B( 19-C , 20-C ) :   1.0944 B( 20-C , 21-C ) :   1.2035
B( 21-C , 22-C ) :   1.1628 B( 22-C , 23-C ) :   1.1568

FINAL SINGLE POINT ENERGY      -920.376411493917

DIPOLE MOMENT
-------------
                                X             Y             Z
Electronic contribution:      1.56162       0.93906       0.00001
Nuclear contribution   :     -1.89524      -1.12486      -0.00003
                        -----------------------------------------
Total Dipole Moment    :     -0.33363      -0.18580      -0.00002
                        -----------------------------------------
Magnitude (a.u.)       :      0.38188
Magnitude (Debye)      :      0.97065

VIBRATIONAL FREQUENCIES
-----------------------

Scaling factor for frequencies =  1.000000000  (already applied!)

   0:         0.00 cm**-1
   1:         0.00 cm**-1
   2:         0.00 cm**-1
   3:         0.00 cm**-1
   4:         0.00 cm**-1
   5:         0.00 cm**-1
   6:      -171.72 cm**-1 ***imaginary mode***
   7:        66.37 cm**-1
   8:        94.05 cm**-1
   9:       121.99 cm**-1
  10:       185.31 cm**-1
  11:       224.11 cm**-1
  12:       274.72 cm**-1
  13:       308.42 cm**-1
  14:       314.82 cm**-1
  15:       320.11 cm**-1
  16:       333.15 cm**-1
  17:       362.71 cm**-1
  18:       374.61 cm**-1
  19:       394.34 cm**-1
  20:       401.97 cm**-1
  21:       430.56 cm**-1
  22:       474.16 cm**-1
  23:       490.20 cm**-1
  24:       495.92 cm**-1
  25:       506.89 cm**-1
  26:       526.99 cm**-1
  27:       537.21 cm**-1
  28:       543.48 cm**-1
  29:       567.93 cm**-1
  30:       571.40 cm**-1
  31:       590.17 cm**-1
  32:       651.85 cm**-1
  33:       666.23 cm**-1
  34:       676.89 cm**-1
  35:       677.41 cm**-1
  36:       686.63 cm**-1
  37:       758.35 cm**-1
  38:       762.42 cm**-1
  39:       763.02 cm**-1
  40:       784.10 cm**-1
  41:       794.36 cm**-1
  42:       818.71 cm**-1
  43:       824.76 cm**-1
  44:       836.00 cm**-1
  45:       853.36 cm**-1
  46:       871.10 cm**-1
  47:       875.82 cm**-1
  48:       878.45 cm**-1
  49:       885.52 cm**-1
  50:       937.86 cm**-1
  51:       983.46 cm**-1
  52:       990.79 cm**-1
  53:       992.86 cm**-1
  54:       994.61 cm**-1
  55:      1003.46 cm**-1
  56:      1014.89 cm**-1
  57:      1046.00 cm**-1
  58:      1128.27 cm**-1
  59:      1147.90 cm**-1
  60:      1168.39 cm**-1
  61:      1177.62 cm**-1
  62:      1181.89 cm**-1
  63:      1202.84 cm**-1
  64:      1207.81 cm**-1
  65:      1229.56 cm**-1
  66:      1238.08 cm**-1
  67:      1240.41 cm**-1
  68:      1257.04 cm**-1
  69:      1273.37 cm**-1
  70:      1320.22 cm**-1
  71:      1336.37 cm**-1
  72:      1343.92 cm**-1
  73:      1369.64 cm**-1
  74:      1391.23 cm**-1
  75:      1396.60 cm**-1
  76:      1426.36 cm**-1
  77:      1437.09 cm**-1
  78:      1448.43 cm**-1
  79:      1462.81 cm**-1
  80:      1471.65 cm**-1
  81:      1500.03 cm**-1
  82:      1513.16 cm**-1
  83:      1537.17 cm**-1
  84:      1556.00 cm**-1
  85:      1575.56 cm**-1
  86:      1592.34 cm**-1
  87:      1655.37 cm**-1
  88:      1667.26 cm**-1
  89:      1678.55 cm**-1
  90:      1688.28 cm**-1
  91:      1692.27 cm**-1
  92:      3174.45 cm**-1
  93:      3175.34 cm**-1
  94:      3203.29 cm**-1
  95:      3204.03 cm**-1
  96:      3211.44 cm**-1
  97:      3212.61 cm**-1
  98:      3220.99 cm**-1
  99:      3221.74 cm**-1
 100:      3235.99 cm**-1
 101:      3236.70 cm**-1

IR SPECTRUM
-----------

 Mode   freq       eps      Int      T**2         TX        TY        TZ
       cm**-1   L/(mol*cm) km/mol    a.u.
----------------------------------------------------------------------------
  7:     66.37   0.000399    2.02  0.001878  (-0.000045  0.000128  0.043335)
  8:     94.05   0.000002    0.01  0.000007  ( 0.000022  0.000052  0.002571)
  9:    121.99   0.000739    3.74  0.001891  (-0.000024  0.000086  0.043486)
 10:    185.31   0.000056    0.28  0.000094  ( 0.000051 -0.000137 -0.009706)
 11:    224.11   0.000000    0.00  0.000000  ( 0.000007  0.000056  0.000288)
 12:    274.72   0.000001    0.00  0.000001  (-0.000114  0.000192  0.001023)
 13:    308.42   0.000158    0.80  0.000160  ( 0.000073 -0.000138 -0.012640)
 14:    314.82   0.000000    0.00  0.000000  ( 0.000072 -0.000040  0.000205)
 15:    320.11   0.000000    0.00  0.000000  ( 0.000040  0.000006  0.000640)
 16:    333.15   0.378049  1910.51  0.354117  ( 0.304172 -0.511465  0.000046)
 17:    362.71   0.000184    0.93  0.000158  (-0.011498 -0.005069 -0.000001)
 18:    374.61   0.005287   26.72  0.004405  (-0.033893  0.057060 -0.000006)
 19:    394.34   0.000420    2.12  0.000333  (-0.017840  0.003781 -0.000004)
 20:    401.97   0.148556  750.74  0.115329  (-0.173439  0.291973 -0.000029)
 21:    430.56   0.000789    3.99  0.000572  (-0.000010 -0.000015  0.023913)
 22:    474.16   0.000000    0.00  0.000000  ( 0.000011  0.000012 -0.000148)
 23:    490.20   0.000100    0.51  0.000064  ( 0.007107  0.003634  0.000002)
 24:    495.92   0.000001    0.01  0.000001  (-0.000448  0.000683 -0.000005)
 25:    506.89   0.003698   18.69  0.002277  (-0.024523  0.040934 -0.000008)
 26:    526.99   0.005666   28.64  0.003355  (-0.000051  0.000103 -0.057925)
 27:    537.21   0.204062  1031.25  0.118540  (-0.175217  0.296377  0.000001)
 28:    543.48   0.000012    0.06  0.000007  ( 0.000000 -0.000032 -0.002580)
 29:    567.93   0.000011    0.06  0.000006  (-0.001601  0.001877 -0.000002)
 30:    571.40   0.000058    0.29  0.000032  ( 0.000015 -0.000039  0.005638)
 31:    590.17   0.000450    2.27  0.000238  ( 0.000049 -0.000074 -0.015428)
 32:    651.85   0.009602   48.53  0.004597  (-0.034365  0.058447 -0.000001)
 33:    666.23   0.000668    3.38  0.000313  ( 0.000008 -0.000015 -0.017693)
 34:    676.89   0.000001    0.00  0.000000  ( 0.000051  0.000042 -0.000536)
 35:    677.41   0.000451    2.28  0.000208  ( 0.012242  0.007597  0.000005)
 36:    686.63   0.000000    0.00  0.000000  ( 0.000099 -0.000025  0.000001)
 37:    758.35   0.002277   11.51  0.000937  ( 0.022906  0.020303 -0.000003)
 38:    762.42   0.000410    2.07  0.000168  (-0.000677  0.001124  0.012886)
 39:    763.02   0.023162  117.05  0.009473  (-0.050780  0.083032 -0.000179)
 40:    784.10   0.000029    0.15  0.000011  (-0.000003 -0.000040  0.003385)
 41:    794.36   0.000000    0.00  0.000000  ( 0.000001 -0.000028  0.000387)
 42:    818.71   0.028824  145.67  0.010987  ( 0.052801 -0.090548  0.000005)
 43:    824.76   0.000005    0.03  0.000002  ( 0.000024  0.000030  0.001392)
 44:    836.00   0.000027    0.14  0.000010  ( 0.003144 -0.000598 -0.000004)
 45:    853.36   0.002243   11.34  0.000820  ( 0.000003  0.000062 -0.028643)
 46:    871.10   0.000013    0.07  0.000005  (-0.000086  0.000100  0.002189)
 47:    875.82   0.097967  495.09  0.034907  ( 0.095721 -0.160449  0.000124)
 48:    878.45   0.012001   60.65  0.004263  (-0.000128  0.000196  0.065292)
 49:    885.52   0.012331   62.32  0.004346  ( 0.000033 -0.000101 -0.065921)
 50:    937.86   0.000000    0.00  0.000000  (-0.000004  0.000104 -0.000197)
 51:    983.46   0.000013    0.07  0.000004  ( 0.000008  0.000009 -0.002038)
 52:    990.79   0.000009    0.04  0.000003  ( 0.000047 -0.000078 -0.001652)
 53:    992.86   0.027481  138.88  0.008638  ( 0.047518 -0.079872  0.000002)
 54:    994.61   0.000009    0.05  0.000003  ( 0.000020 -0.000002 -0.001715)
 55:   1003.46   0.000000    0.00  0.000000  (-0.000007 -0.000022  0.000195)
 56:   1014.89   0.000083    0.42  0.000026  ( 0.004741  0.001768  0.000000)
 57:   1046.00   0.000479    2.42  0.000143  ( 0.009922  0.006676 -0.000001)
 58:   1128.27   0.005738   29.00  0.001587  ( 0.018428 -0.035320  0.000004)
 59:   1147.90   0.000604    3.05  0.000164  (-0.009718 -0.008346  0.000002)
 60:   1168.39   0.001182    5.97  0.000316  ( 0.014925  0.009646  0.000001)
 61:   1177.62   0.003704   18.72  0.000982  (-0.015583  0.027180  0.000006)
 62:   1181.89   0.001196    6.04  0.000316  ( 0.009835 -0.014797  0.000000)
 63:   1202.84   0.000015    0.08  0.000004  (-0.001514 -0.001285 -0.000001)
 64:   1207.81   0.001226    6.20  0.000317  (-0.007533  0.016128  0.000000)
 65:   1229.56   0.000267    1.35  0.000068  ( 0.004765  0.006720 -0.000000)
 66:   1238.08   0.006033   30.49  0.001521  (-0.021175  0.032744 -0.000001)
 67:   1240.41   0.000048    0.24  0.000012  ( 0.002745 -0.002122  0.000001)
 68:   1257.04   0.011088   56.03  0.002753  (-0.026600  0.045222 -0.000002)
 69:   1273.37   0.037201  188.00  0.009117  (-0.048870  0.082028 -0.000002)
 70:   1320.22   0.004718   23.84  0.001115  (-0.029790 -0.015092 -0.000001)
 71:   1336.37   0.000368    1.86  0.000086  (-0.008132  0.004451 -0.000000)
 72:   1343.92   0.054938  277.63  0.012757  (-0.055505  0.098367 -0.000001)
 73:   1369.64   0.022167  112.02  0.005050  (-0.036187  0.061164  0.000004)
 74:   1391.23   0.000774    3.91  0.000174  (-0.007289  0.010973 -0.000001)
 75:   1396.60   0.051081  258.14  0.011414  ( 0.055186 -0.091478  0.000005)
 76:   1426.36   0.000022    0.11  0.000005  (-0.001606 -0.001512 -0.000000)
 77:   1437.09   0.014546   73.51  0.003159  (-0.028622  0.048367 -0.000004)
 78:   1448.43   0.000257    1.30  0.000055  (-0.007093 -0.002249  0.000000)
 79:   1462.81   0.004279   21.63  0.000913  (-0.014821  0.026329  0.000001)
 80:   1471.65   0.000137    0.69  0.000029  (-0.002560 -0.004750  0.000001)
 81:   1500.03   0.000776    3.92  0.000162  ( 0.011234  0.005945  0.000001)
 82:   1513.16   0.000168    0.85  0.000035  ( 0.005023  0.003072 -0.000001)
 83:   1537.17   0.007497   37.89  0.001522  (-0.018978  0.034085 -0.000001)
 84:   1556.00   0.004306   21.76  0.000864  ( 0.014619 -0.025494 -0.000004)
 85:   1575.56   0.003769   19.05  0.000747  (-0.013542  0.023731 -0.000005)
 86:   1592.34   0.000074    0.37  0.000014  ( 0.002746  0.002631  0.000000)
 87:   1655.37   0.014869   75.14  0.002803  (-0.027897  0.044998  0.000005)
 88:   1667.26   0.002658   13.43  0.000497  (-0.017744 -0.013513 -0.000001)
 89:   1678.55   0.000698    3.53  0.000130  (-0.010651 -0.004032 -0.000001)
 90:   1688.28   0.000325    1.64  0.000060  ( 0.007737  0.000414 -0.000000)
 91:   1692.27   0.008903   44.99  0.001642  (-0.020044  0.035215 -0.000001)
 92:   3174.45   0.010178   51.44  0.001001  ( 0.016902 -0.026738  0.000002)
 93:   3175.34   0.000152    0.77  0.000015  ( 0.000426  0.003845 -0.000000)
 94:   3203.29   0.000379    1.91  0.000037  ( 0.003210 -0.005157  0.000000)
 95:   3204.03   0.000318    1.61  0.000031  (-0.004869 -0.002704 -0.000000)
 96:   3211.44   0.000009    0.05  0.000001  ( 0.000919 -0.000253 -0.000000)
 97:   3212.61   0.000679    3.43  0.000066  (-0.006831 -0.004390 -0.000000)
 98:   3220.99   0.002953   14.92  0.000286  ( 0.000166 -0.016914  0.000001)
 99:   3221.74   0.003162   15.98  0.000306  ( 0.017500 -0.000277  0.000001)
100:   3235.99   0.001209    6.11  0.000117  ( 0.005113  0.009511  0.000000)
101:   3236.70   0.001429    7.22  0.000138  ( 0.011026 -0.004023 -0.000000)

--------------------------
THERMOCHEMISTRY AT 10000.00K
--------------------------

Temperature         ... 10000.00 K
Pressure            ... 1.00 atm
Total Mass          ... 298.34 AMU

Throughout the following assumptions are being made:
  (1) The electronic state is orbitally nondegenerate
  (2) There are no thermally accessible electronically excited states
  (3) Hindered rotations indicated by low frequency modes are not
      treated as such but are treated as vibrations and this may
      cause some error
  (4) All equations used are the standard statistical mechanics
      equations for an ideal gas
  (5) All vibrations are strictly harmonic

freq.      66.37  E(vib)   ...      19.78
freq.      94.05  E(vib)   ...      19.74
freq.     121.99  E(vib)   ...      19.70
freq.     185.31  E(vib)   ...      19.61
freq.     224.11  E(vib)   ...      19.55
freq.     274.72  E(vib)   ...      19.48
freq.     308.42  E(vib)   ...      19.43
freq.     314.82  E(vib)   ...      19.43
freq.     320.11  E(vib)   ...      19.42
freq.     333.15  E(vib)   ...      19.40
freq.     362.71  E(vib)   ...      19.36
freq.     374.61  E(vib)   ...      19.34
freq.     394.34  E(vib)   ...      19.31
freq.     401.97  E(vib)   ...      19.30
freq.     430.56  E(vib)   ...      19.26
freq.     474.16  E(vib)   ...      19.20
freq.     490.20  E(vib)   ...      19.18
freq.     495.92  E(vib)   ...      19.17
freq.     506.89  E(vib)   ...      19.16
freq.     526.99  E(vib)   ...      19.13
freq.     537.21  E(vib)   ...      19.11
freq.     543.48  E(vib)   ...      19.11
freq.     567.93  E(vib)   ...      19.07
freq.     571.40  E(vib)   ...      19.07
freq.     590.17  E(vib)   ...      19.04
freq.     651.85  E(vib)   ...      18.96
freq.     666.23  E(vib)   ...      18.94
freq.     676.89  E(vib)   ...      18.92
freq.     677.41  E(vib)   ...      18.92
freq.     686.63  E(vib)   ...      18.91
freq.     758.35  E(vib)   ...      18.81
freq.     762.42  E(vib)   ...      18.80
freq.     763.02  E(vib)   ...      18.80
freq.     784.10  E(vib)   ...      18.77
freq.     794.36  E(vib)   ...      18.76
freq.     818.71  E(vib)   ...      18.73
freq.     824.76  E(vib)   ...      18.72
freq.     836.00  E(vib)   ...      18.70
freq.     853.36  E(vib)   ...      18.68
freq.     871.10  E(vib)   ...      18.65
freq.     875.82  E(vib)   ...      18.65
freq.     878.45  E(vib)   ...      18.64
freq.     885.52  E(vib)   ...      18.63
freq.     937.86  E(vib)   ...      18.56
freq.     983.46  E(vib)   ...      18.50
freq.     990.79  E(vib)   ...      18.49
freq.     992.86  E(vib)   ...      18.49
freq.     994.61  E(vib)   ...      18.48
freq.    1003.46  E(vib)   ...      18.47
freq.    1014.89  E(vib)   ...      18.46
freq.    1046.00  E(vib)   ...      18.41
freq.    1128.27  E(vib)   ...      18.30
freq.    1147.90  E(vib)   ...      18.28
freq.    1168.39  E(vib)   ...      18.25
freq.    1177.62  E(vib)   ...      18.24
freq.    1181.89  E(vib)   ...      18.23
freq.    1202.84  E(vib)   ...      18.20
freq.    1207.81  E(vib)   ...      18.20
freq.    1229.56  E(vib)   ...      18.17
freq.    1238.08  E(vib)   ...      18.16
freq.    1240.41  E(vib)   ...      18.15
freq.    1257.04  E(vib)   ...      18.13
freq.    1273.37  E(vib)   ...      18.11
freq.    1320.22  E(vib)   ...      18.04
freq.    1336.37  E(vib)   ...      18.02
freq.    1343.92  E(vib)   ...      18.01
freq.    1369.64  E(vib)   ...      17.98
freq.    1391.23  E(vib)   ...      17.95
freq.    1396.60  E(vib)   ...      17.94
freq.    1426.36  E(vib)   ...      17.90
freq.    1437.09  E(vib)   ...      17.89
freq.    1448.43  E(vib)   ...      17.87
freq.    1462.81  E(vib)   ...      17.85
freq.    1471.65  E(vib)   ...      17.84
freq.    1500.03  E(vib)   ...      17.81
freq.    1513.16  E(vib)   ...      17.79
freq.    1537.17  E(vib)   ...      17.76
freq.    1556.00  E(vib)   ...      17.73
freq.    1575.56  E(vib)   ...      17.71
freq.    1592.34  E(vib)   ...      17.68
freq.    1655.37  E(vib)   ...      17.60
freq.    1667.26  E(vib)   ...      17.58
freq.    1678.55  E(vib)   ...      17.57
freq.    1688.28  E(vib)   ...      17.56
freq.    1692.27  E(vib)   ...      17.55
freq.    3174.45  E(vib)   ...      15.68
freq.    3175.34  E(vib)   ...      15.68
freq.    3203.29  E(vib)   ...      15.64
freq.    3204.03  E(vib)   ...      15.64
freq.    3211.44  E(vib)   ...      15.63
freq.    3212.61  E(vib)   ...      15.63
freq.    3220.99  E(vib)   ...      15.62
freq.    3221.74  E(vib)   ...      15.62
freq.    3235.99  E(vib)   ...      15.60
freq.    3236.70  E(vib)   ...      15.60

------------
INNER ENERGY
------------

The inner energy is: U= E(el) + E(ZPE) + E(vib) + E(rot) + E(trans)
    E(el)   - is the total energy from the electronic structure calculation
              = E(kin-el) + E(nuc-el) + E(el-el) + E(nuc-nuc)
    E(ZPE)  - the the zero temperature vibrational energy from the frequency calculation
    E(vib)  - the the finite temperature correction to E(ZPE) due to population
              of excited vibrational states
    E(rot)  - is the rotational thermal energy
    E(trans)- is the translational thermal energy

Summary of contributions to the inner energy U:
Electronic energy                ...   -920.37641149 Eh
Zero point energy                ...      0.25321955 Eh     158.90 kcal/mol
Thermal vibrational correction   ...      2.76588593 Eh    1735.62 kcal/mol
Thermal rotational correction    ...      0.04750198 Eh      29.81 kcal/mol
Thermal translational correction ...      0.04750198 Eh      29.81 kcal/mol
-----------------------------------------------------------------------
Total thermal energy                   -917.26230205 Eh

Summary of corrections to the electronic energy:
(perhaps to be used in another calculation)
Total thermal correction                  2.86088989 Eh    1795.23 kcal/mol
Non-thermal (ZPE) correction              0.25321955 Eh     158.90 kcal/mol
-----------------------------------------------------------------------
Total correction                          3.11410944 Eh    1954.13 kcal/mol

--------
ENTHALPY
--------

The enthalpy is H = U + kB*T
                kB is Boltzmann's constant
Total free energy                 ...   -917.26230205 Eh
Thermal Enthalpy correction       ...      0.03166893 Eh      19.87 kcal/mol
-----------------------------------------------------------------------
Total Enthalpy                    ...   -917.23063313 Eh

Note: Only C1 symmetry has been detected, increase convergence thresholds
      if your molecule has a higher symmetry. Symmetry factor of 1.0 is
      used for the rotational entropy correction.

Rotational constants in cm-1:     0.011683     0.011145     0.005704

                             ****ORCA TERMINATED NORMALLY****
TOTAL RUN TIME: 0 days 8 hours 31 minutes 57 seconds 734 msec
