                         Program Version 5.0.4 -  RELEASE  -
|  1> !M062X DEF2-TZVP OPT FREQ PAL4
|  2> %freq
|  3> Temp 298.15,10,20,50,100,6000,8000,10000
|  4> end
|  5>
|  6> * xyz 0 2
|  7>   C   2.45025911436908     -2.79090177790463     -0.00000982964919
|  8>   C   1.27956958510907     -3.48660258649203     -0.00004173389427
|  9>   C   0.03020658595300     -2.81550364249800     -0.00011862088441
| 10>   C   -1.20107819729747     -3.52526706874898     -0.00015240048714
| 11>   C   -2.38858789470557     -2.86502728739536     -0.00022482001470
| 12>   C   -2.44105509445554     -1.44398386157020     -0.00026954248287
| 13>   C   -3.67663052786843     -0.75322560258363     -0.00034505741295
| 14>   C   -3.72620674307354      0.61012331224561     -0.00038725318909
| 15>   C   -2.53312282987023      1.35934632798929     -0.00035605272073
| 16>   C   -2.34753337498203      2.75391254959518     -0.00038934949593
| 17>   C   -1.29670155377861      3.37861761727772     -0.00036267557578
| 18>   C   0.01685582404701      2.87468391601134     -0.00029170556996
| 19>   C   1.24552120765708      3.56426857632077     -0.00025954932536
| 20>   C   2.41910897755889      2.86883891663109     -0.00018686269248
| 21>   C   2.43513201634147      1.45348005475609     -0.00014272162428
| 22>   C   3.65821453508405      0.72792377916697     -0.00006423037791
| 23>   C   3.67026889114169     -0.63084151991298     -0.00002152358643
| 24>   C   2.45819623267264     -1.37288294365309     -0.00005292192897
| 25>   C   1.23136494255913     -0.68205099072942     -0.00012978920390
| 26>   C   1.21552338299244      0.74291881045426     -0.00017515439035
| 27>   C   -0.02157562885261      1.44516062565708     -0.00024971485033
| 28>   C   -1.25909575897147      0.70970393432854     -0.00028207962759
| 29>   C   -1.23391475435778     -0.71245727770562     -0.00023706797792
| 30>   C   0.01012694395947     -1.40778803226763     -0.00016249723364
| 31>   H   3.39883583341171     -3.31417365841427      0.00004947598548
| 32>   H   1.28571717640132     -4.56990075715492     -0.00000797167050
| 33>   H   -1.17451584360617     -4.60820675048880     -0.00011872516592
| 34>   H   -3.32207671532680     -3.41465497856564     -0.00025023814909
| 35>   H   -4.59253679048289     -1.33153116975716     -0.00036952032608
| 36>   H   -4.67219071827069      1.13379875695350     -0.00044562775965
| 37>   H   1.23798091724791      4.64550021059141     -0.00029268019975
| 38>   H   3.36490179443101      3.39691648656407     -0.00016139178048
| 39>   H   4.60871019346374     -1.17195606478706      0.00003963734661
| 40> **                         ****END OF INPUT****
 Total Charge           Charge          ....    0
 Multiplicity           Mult            ....    2
 Number of Electrons    NEL             ....  153
FINAL SINGLE POINT ENERGY      -919.831250274565
FINAL SINGLE POINT ENERGY      -919.832919680296
FINAL SINGLE POINT ENERGY      -919.833552890630
FINAL SINGLE POINT ENERGY      -919.833563956083
FINAL SINGLE POINT ENERGY      -919.833565616388
                    ***********************HURRAY********************

CARTESIAN COORDINATES (ANGSTROEM)
---------------------------------
  C      2.451460   -2.796408   -0.000009
  C      1.277450   -3.488020   -0.000042
  C      0.030996   -2.814769   -0.000120
  C     -1.200394   -3.523706   -0.000151
  C     -2.388214   -2.863744   -0.000230
  C     -2.438916   -1.442789   -0.000268
  C     -3.674801   -0.753521   -0.000344
  C     -3.725852    0.610337   -0.000386
  C     -2.532767    1.359187   -0.000356
  C     -2.346364    2.753557   -0.000393
  C     -1.296426    3.379949   -0.000365
  C      0.017038    2.876639   -0.000291
  C      1.243385    3.570003   -0.000260
  C      2.422074    2.882168   -0.000186
  C      2.432295    1.467998   -0.000144
  C      3.606478    0.698137   -0.000069
  C      3.685869   -0.640743   -0.000021
  C      2.461683   -1.379766   -0.000050
  C      1.236254   -0.682459   -0.000129
  C      1.214070    0.744608   -0.000173
  C     -0.021855    1.446620   -0.000248
  C     -1.258711    0.710154   -0.000278
  C     -1.231247   -0.711764   -0.000238
  C      0.013593   -1.406541   -0.000161
  H      3.398156   -3.322948    0.000054
  H      1.281212   -4.571526   -0.000007
  H     -1.174207   -4.606777   -0.000122
  H     -3.321535   -3.413848   -0.000253
  H     -4.589744   -1.333706   -0.000366
  H     -4.671598    1.134786   -0.000444
  H      1.231103    4.651276   -0.000295
  H      3.368377    3.407239   -0.000162
  H      4.630813   -1.171384    0.000037

 Multiplicity           Mult            ....    2
 Number of Electrons    NEL             ....  153
 Basis Dimension        Dim             ....  798

ORBITAL ENERGIES
----------------
                 SPIN UP ORBITALS
  NO   OCC          E(Eh)            E(eV)
   0   1.0000     -10.587193      -288.0922
   1   1.0000     -10.586078      -288.0618
   2   1.0000     -10.576965      -287.8139
   3   1.0000     -10.573425      -287.7175
   4   1.0000     -10.572424      -287.6903
   5   1.0000     -10.571565      -287.6669
   6   1.0000     -10.569255      -287.6041
   7   1.0000     -10.568412      -287.5811
   8   1.0000     -10.566659      -287.5334
   9   1.0000     -10.564583      -287.4769
  10   1.0000     -10.563937      -287.4593
  11   1.0000     -10.563439      -287.4458
  12   1.0000     -10.561874      -287.4032
  13   1.0000     -10.558660      -287.3157
  14   1.0000     -10.557057      -287.2721
  15   1.0000     -10.556815      -287.2655
  16   1.0000     -10.556571      -287.2589
  17   1.0000     -10.555776      -287.2373
  18   1.0000     -10.554922      -287.2140
  19   1.0000     -10.553945      -287.1875
  20   1.0000     -10.553834      -287.1844
  21   1.0000     -10.552864      -287.1580
  22   1.0000     -10.551523      -287.1215
  23   1.0000     -10.548994      -287.0527
  24   1.0000      -1.030297       -28.0358
  25   1.0000      -0.992744       -27.0139
  26   1.0000      -0.991062       -26.9682
  27   1.0000      -0.941390       -25.6165
  28   1.0000      -0.940293       -25.5867
  29   1.0000      -0.918589       -24.9961
  30   1.0000      -0.890089       -24.2205
  31   1.0000      -0.870598       -23.6902
  32   1.0000      -0.853177       -23.2161
  33   1.0000      -0.845261       -23.0007
  34   1.0000      -0.818925       -22.2841
  35   1.0000      -0.816413       -22.2157
  36   1.0000      -0.734464       -19.9858
  37   1.0000      -0.733461       -19.9585
  38   1.0000      -0.722178       -19.6515
  39   1.0000      -0.720388       -19.6027
  40   1.0000      -0.715658       -19.4741
  41   1.0000      -0.655973       -17.8499
  42   1.0000      -0.629478       -17.1290
  43   1.0000      -0.625657       -17.0250
  44   1.0000      -0.614889       -16.7320
  45   1.0000      -0.611033       -16.6271
  46   1.0000      -0.598593       -16.2885
  47   1.0000      -0.557377       -15.1670
  48   1.0000      -0.553556       -15.0630
  49   1.0000      -0.542683       -14.7672
  50   1.0000      -0.535891       -14.5823
  51   1.0000      -0.522103       -14.2072
  52   1.0000      -0.519351       -14.1323
  53   1.0000      -0.512414       -13.9435
  54   1.0000      -0.501830       -13.6555
  55   1.0000      -0.492846       -13.4110
  56   1.0000      -0.486069       -13.2266
  57   1.0000      -0.482925       -13.1411
  58   1.0000      -0.474789       -12.9197
  59   1.0000      -0.472726       -12.8635
  60   1.0000      -0.462475       -12.5846
  61   1.0000      -0.450377       -12.2554
  62   1.0000      -0.444660       -12.0998
  63   1.0000      -0.433630       -11.7997
  64   1.0000      -0.414447       -11.2777
  65   1.0000      -0.410964       -11.1829
  66   1.0000      -0.403093       -10.9687
  67   1.0000      -0.392867       -10.6905
  68   1.0000      -0.392359       -10.6766
  69   1.0000      -0.345900        -9.4124
  70   1.0000      -0.334779        -9.1098
  71   1.0000      -0.329603        -8.9690
  72   1.0000      -0.319044        -8.6816
  73   1.0000      -0.316070        -8.6007
  74   1.0000      -0.312668        -8.5081
  75   1.0000      -0.262002        -7.1295
  76   1.0000      -0.261648        -7.1198
  77   0.0000      -0.048438        -1.3181
  78   0.0000      -0.040973        -1.1149
  79   0.0000      -0.038351        -1.0436
  80   0.0000      -0.001456        -0.0396
  81   0.0000       0.003138         0.0854

                 SPIN DOWN ORBITALS
  NO   OCC          E(Eh)            E(eV)
   0   1.0000     -10.587127      -288.0904
   1   1.0000     -10.586114      -288.0628
   2   1.0000     -10.573352      -287.7155
   3   1.0000     -10.572353      -287.6883
   4   1.0000     -10.570926      -287.6495
   5   1.0000     -10.569205      -287.6027
   6   1.0000     -10.567491      -287.5561
   7   1.0000     -10.567040      -287.5438
   8   1.0000     -10.566690      -287.5343
   9   1.0000     -10.564696      -287.4800
  10   1.0000     -10.563969      -287.4602
  11   1.0000     -10.563404      -287.4448
  12   1.0000     -10.561967      -287.4057
  13   1.0000     -10.558289      -287.3057
  14   1.0000     -10.557361      -287.2804
  15   1.0000     -10.556830      -287.2659
  16   1.0000     -10.556623      -287.2603
  17   1.0000     -10.555763      -287.2369
  18   1.0000     -10.554871      -287.2126
  19   1.0000     -10.553917      -287.1867
  20   1.0000     -10.553844      -287.1847
  21   1.0000     -10.552877      -287.1584
  22   1.0000     -10.551515      -287.1213
  23   1.0000     -10.549005      -287.0530
  24   1.0000      -1.029088       -28.0029
  25   1.0000      -0.991236       -26.9729
  26   1.0000      -0.988819       -26.9071
  27   1.0000      -0.939549       -25.5664
  28   1.0000      -0.937378       -25.5073
  29   1.0000      -0.916860       -24.9490
  30   1.0000      -0.886510       -24.1232
  31   1.0000      -0.868337       -23.6286
  32   1.0000      -0.850480       -23.1427
  33   1.0000      -0.844598       -22.9827
  34   1.0000      -0.817498       -22.2453
  35   1.0000      -0.811183       -22.0734
  36   1.0000      -0.733446       -19.9581
  37   1.0000      -0.732619       -19.9356
  38   1.0000      -0.718793       -19.5594
  39   1.0000      -0.717791       -19.5321
  40   1.0000      -0.710295       -19.3281
  41   1.0000      -0.654894       -17.8206
  42   1.0000      -0.627130       -17.0651
  43   1.0000      -0.623159       -16.9570
  44   1.0000      -0.610894       -16.6233
  45   1.0000      -0.607512       -16.5312
  46   1.0000      -0.594071       -16.1655
  47   1.0000      -0.553864       -15.0714
  48   1.0000      -0.552115       -15.0238
  49   1.0000      -0.539976       -14.6935
  50   1.0000      -0.534446       -14.5430
  51   1.0000      -0.519742       -14.1429
  52   1.0000      -0.518522       -14.1097
  53   1.0000      -0.510166       -13.8823
  54   1.0000      -0.501214       -13.6387
  55   1.0000      -0.490118       -13.3368
  56   1.0000      -0.484302       -13.1785
  57   1.0000      -0.479238       -13.0407
  58   1.0000      -0.473876       -12.8948
  59   1.0000      -0.470585       -12.8053
  60   1.0000      -0.456005       -12.4085
  61   1.0000      -0.449416       -12.2292
  62   1.0000      -0.442933       -12.0528
  63   1.0000      -0.431338       -11.7373
  64   1.0000      -0.412101       -11.2138
  65   1.0000      -0.409546       -11.1443
  66   1.0000      -0.396998       -10.8029
  67   1.0000      -0.391875       -10.6635
  68   1.0000      -0.390312       -10.6209
  69   1.0000      -0.342626        -9.3233
  70   1.0000      -0.333809        -9.0834
  71   1.0000      -0.329237        -8.9590
  72   1.0000      -0.317060        -8.6277
  73   1.0000      -0.315558        -8.5868
  74   1.0000      -0.262974        -7.1559
  75   1.0000      -0.256558        -6.9813
  76   0.0000      -0.064056        -1.7431
  77   0.0000      -0.044384        -1.2077
  78   0.0000      -0.041616        -1.1324
  79   0.0000      -0.038324        -1.0429
  80   0.0000       0.000859         0.0234

MULLIKEN ATOMIC CHARGES AND SPIN POPULATIONS
--------------------------------------------
   0 C :   -0.176196   -0.010946
   1 C :   -0.181688    0.010912
   2 C :    0.094544   -0.014954
   3 C :   -0.187009    0.007517
   4 C :   -0.188860   -0.011131
   5 C :    0.091777    0.005341
   6 C :   -0.150617   -0.004923
   7 C :   -0.232886    0.004296
   8 C :    0.086992   -0.004692
   9 C :   -0.063911    0.004965
  10 C :   -0.063618   -0.005507
  11 C :    0.083397    0.007829
  12 C :   -0.214645   -0.016957
  13 C :   -0.205826   -0.012297
  14 C :   -0.067010   -0.009273
  15 C :    0.222466    1.031149
  16 C :   -0.341289   -0.112817
  17 C :    0.153106    0.067462
  18 C :   -0.031754   -0.029330
  19 C :    0.078987    0.058508
  20 C :   -0.000964   -0.006559
  21 C :   -0.028275    0.004286
  22 C :    0.054801   -0.005687
  23 C :    0.018802    0.013201
  24 H :    0.137143    0.000446
  25 H :    0.135629    0.000455
  26 H :    0.134842   -0.000099
  27 H :    0.135958    0.000298
  28 H :    0.136310    0.000090
  29 H :    0.147223   -0.000045
  30 H :    0.146987    0.000432
  31 H :    0.143471    0.010551
  32 H :    0.132114    0.017478
Sum of atomic charges         :   -0.0000000

LOEWDIN ATOMIC CHARGES AND SPIN POPULATIONS
-------------------------------------------
   0 C :   -0.099662   -0.002153
   1 C :   -0.096399    0.005656
   2 C :   -0.093304   -0.007698
   3 C :   -0.098844    0.002066
   4 C :   -0.099387   -0.006953
   5 C :   -0.092033    0.001321
   6 C :   -0.093201   -0.002670
   7 C :   -0.098405    0.001890
   8 C :   -0.094652   -0.002378
   9 C :    0.015398    0.002913
  10 C :    0.013768   -0.002733
  11 C :   -0.093470    0.003501
  12 C :   -0.096990   -0.007199
  13 C :   -0.089400    0.016861
  14 C :   -0.113574    0.079750
  15 C :    0.059864    0.797084
  16 C :   -0.120962    0.052643
  17 C :   -0.085954    0.033775
  18 C :   -0.007127   -0.014471
  19 C :    0.000513    0.028363
  20 C :    0.010369    0.003335
  21 C :    0.010807    0.002896
  22 C :   -0.004513   -0.001737
  23 C :   -0.004976    0.001469
  24 H :    0.151006    0.000066
  25 H :    0.151094    0.000424
  26 H :    0.150785    0.000002
  27 H :    0.150852    0.000022
  28 H :    0.151860    0.000014
  29 H :    0.153706    0.000031
  30 H :    0.154233    0.000026
  31 H :    0.154006    0.001116
  32 H :    0.154591    0.012768

  Mayer bond orders larger than 0.100000
B(  0-C ,  1-C ) :   1.6291 B(  0-C , 17-C ) :   1.2449 B(  0-C , 24-H ) :   0.9320
B(  1-C ,  2-C ) :   1.2522 B(  1-C , 25-H ) :   0.9308 B(  2-C ,  3-C ) :   1.2269
B(  2-C , 23-C ) :   1.3095 B(  3-C ,  4-C ) :   1.6563 B(  3-C , 26-H ) :   0.9345
B(  4-C ,  5-C ) :   1.2278 B(  4-C , 27-H ) :   0.9311 B(  5-C ,  6-C ) :   1.2605
B(  5-C , 22-C ) :   1.2953 B(  6-C ,  7-C ) :   1.5797 B(  6-C , 28-H ) :   0.9368
B(  7-C ,  8-C ) :   1.2850 B(  7-C , 29-H ) :   0.9460 B(  8-C ,  9-C ) :   1.1560
B(  8-C , 21-C ) :   1.2971 B(  9-C , 10-C ) :   2.5419 B( 10-C , 11-C ) :   1.1550
B( 11-C , 12-C ) :   1.2726 B( 11-C , 20-C ) :   1.2956 B( 12-C , 13-C ) :   1.5531
B( 12-C , 30-H ) :   0.9523 B( 13-C , 14-C ) :   1.2524 B( 13-C , 31-H ) :   0.9612
B( 14-C , 15-C ) :   1.3433 B( 14-C , 19-C ) :   1.2708 B( 15-C , 16-C ) :   1.7540
B( 16-C , 17-C ) :   1.1111 B( 16-C , 32-H ) :   0.9663 B( 17-C , 18-C ) :   1.2901
B( 18-C , 19-C ) :   1.1583 B( 18-C , 23-C ) :   1.1803 B( 19-C , 20-C ) :   1.1608
B( 20-C , 21-C ) :   1.2243 B( 21-C , 22-C ) :   1.1614 B( 22-C , 23-C ) :   1.1575

FINAL SINGLE POINT ENERGY      -919.833565755893

DIPOLE MOMENT
-------------
                                X             Y             Z
Electronic contribution:     -0.05206       7.52185      -0.00023
Nuclear contribution   :      0.14659      -8.39067       0.00026
                        -----------------------------------------
Total Dipole Moment    :      0.09453      -0.86882       0.00003
                        -----------------------------------------
Magnitude (a.u.)       :      0.87394
Magnitude (Debye)      :      2.22139

VIBRATIONAL FREQUENCIES
-----------------------

Scaling factor for frequencies =  1.000000000  (already applied!)

   0:         0.00 cm**-1
   1:         0.00 cm**-1
   2:         0.00 cm**-1
   3:         0.00 cm**-1
   4:         0.00 cm**-1
   5:         0.00 cm**-1
   6:        86.92 cm**-1
   7:        89.45 cm**-1
   8:       128.28 cm**-1
   9:       169.73 cm**-1
  10:       228.09 cm**-1
  11:       297.13 cm**-1
  12:       299.72 cm**-1
  13:       316.06 cm**-1
  14:       326.41 cm**-1
  15:       359.21 cm**-1
  16:       368.92 cm**-1
  17:       388.68 cm**-1
  18:       395.70 cm**-1
  19:       447.66 cm**-1
  20:       452.36 cm**-1
  21:       465.12 cm**-1
  22:       476.05 cm**-1
  23:       497.94 cm**-1
  24:       501.52 cm**-1
  25:       507.88 cm**-1
  26:       513.55 cm**-1
  27:       543.27 cm**-1
  28:       567.52 cm**-1
  29:       584.03 cm**-1
  30:       586.01 cm**-1
  31:       639.72 cm**-1
  32:       653.01 cm**-1
  33:       683.60 cm**-1
  34:       684.32 cm**-1
  35:       688.79 cm**-1
  36:       697.29 cm**-1
  37:       746.92 cm**-1
  38:       769.02 cm**-1
  39:       794.99 cm**-1
  40:       809.90 cm**-1
  41:       836.14 cm**-1
  42:       837.72 cm**-1
  43:       839.21 cm**-1
  44:       849.39 cm**-1
  45:       859.83 cm**-1
  46:       877.25 cm**-1
  47:       894.07 cm**-1
  48:       913.30 cm**-1
  49:       952.21 cm**-1
  50:       982.69 cm**-1
  51:       992.22 cm**-1
  52:       997.54 cm**-1
  53:      1000.14 cm**-1
  54:      1002.83 cm**-1
  55:      1014.98 cm**-1
  56:      1052.10 cm**-1
  57:      1143.46 cm**-1
  58:      1154.66 cm**-1
  59:      1167.32 cm**-1
  60:      1172.38 cm**-1
  61:      1191.88 cm**-1
  62:      1217.35 cm**-1
  63:      1232.24 cm**-1
  64:      1247.91 cm**-1
  65:      1252.69 cm**-1
  66:      1255.08 cm**-1
  67:      1293.25 cm**-1
  68:      1304.86 cm**-1
  69:      1346.88 cm**-1
  70:      1372.27 cm**-1
  71:      1383.98 cm**-1
  72:      1405.79 cm**-1
  73:      1410.26 cm**-1
  74:      1429.71 cm**-1
  75:      1440.46 cm**-1
  76:      1451.91 cm**-1
  77:      1471.10 cm**-1
  78:      1479.98 cm**-1
  79:      1503.09 cm**-1
  80:      1550.40 cm**-1
  81:      1555.93 cm**-1
  82:      1574.91 cm**-1
  83:      1593.33 cm**-1
  84:      1608.84 cm**-1
  85:      1663.73 cm**-1
  86:      1677.98 cm**-1
  87:      1688.98 cm**-1
  88:      1694.09 cm**-1
  89:      2126.37 cm**-1
  90:      3204.04 cm**-1
  91:      3204.94 cm**-1
  92:      3205.35 cm**-1
  93:      3211.65 cm**-1
  94:      3220.60 cm**-1
  95:      3221.50 cm**-1
  96:      3222.59 cm**-1
  97:      3238.57 cm**-1
  98:      3240.19 cm**-1

IR SPECTRUM
-----------

 Mode   freq       eps      Int      T**2         TX        TY        TZ
       cm**-1   L/(mol*cm) km/mol    a.u.
----------------------------------------------------------------------------
  6:     86.92   0.000025    0.13  0.000089  (-0.000015  0.000027 -0.009457)
  7:     89.45   0.000015    0.08  0.000052  ( 0.000028 -0.000006  0.007235)
  8:    128.28   0.000887    4.48  0.002158  ( 0.000003 -0.000006 -0.046453)
  9:    169.73   0.000022    0.11  0.000041  ( 0.000016 -0.000020 -0.006386)
 10:    228.09   0.000024    0.12  0.000033  (-0.000016 -0.000007 -0.005748)
 11:    297.13   0.000005    0.03  0.000005  (-0.000002 -0.000016  0.002333)
 12:    299.72   0.000000    0.00  0.000000  (-0.000012 -0.000019  0.000415)
 13:    316.06   0.000041    0.21  0.000041  (-0.000015 -0.000015 -0.006400)
 14:    326.41   0.000418    2.11  0.000399  ( 0.000000 -0.000010 -0.019985)
 15:    359.21   0.001777    8.98  0.001544  (-0.035340 -0.017176 -0.000001)
 16:    368.92   0.000007    0.04  0.000006  ( 0.001101  0.002215  0.000001)
 17:    388.68   0.000929    4.69  0.000746  (-0.009837  0.025476 -0.000001)
 18:    395.70   0.000343    1.73  0.000270  ( 0.014451 -0.007836  0.000001)
 19:    447.66   0.012662   63.99  0.008827  (-0.080014 -0.049240 -0.000003)
 20:    452.36   0.000019    0.09  0.000013  (-0.000011 -0.000026  0.003591)
 21:    465.12   0.000028    0.14  0.000019  (-0.000010 -0.000000 -0.004340)
 22:    476.05   0.000092    0.46  0.000060  (-0.005072  0.005860  0.000001)
 23:    497.94   0.000048    0.24  0.000030  (-0.000672 -0.005436  0.000002)
 24:    501.52   0.000098    0.49  0.000061  ( 0.005639 -0.005382  0.000003)
 25:    507.88   0.000136    0.69  0.000083  (-0.000003  0.000018 -0.009131)
 26:    513.55   0.000277    1.40  0.000168  (-0.010198 -0.008011 -0.000002)
 27:    543.27   0.000339    1.71  0.000194  (-0.000007 -0.000001  0.013946)
 28:    567.52   0.000085    0.43  0.000047  (-0.000003 -0.000002 -0.006825)
 29:    584.03   0.001762    8.91  0.000942  (-0.027113 -0.014369 -0.000033)
 30:    586.01   0.005626   28.43  0.002996  ( 0.000001 -0.000002 -0.054735)
 31:    639.72   0.000000    0.00  0.000000  (-0.000009 -0.000011  0.000088)
 32:    653.01   0.000605    3.06  0.000289  (-0.014365 -0.009111  0.000001)
 33:    683.60   0.000200    1.01  0.000091  ( 0.000007  0.000002  0.009557)
 34:    684.32   0.000270    1.37  0.000123  (-0.006742  0.008822  0.000009)
 35:    688.79   0.000003    0.01  0.000001  (-0.001058 -0.000128  0.000001)
 36:    697.29   0.000026    0.13  0.000012  ( 0.000000  0.000003 -0.003417)
 37:    746.92   0.001678    8.48  0.000701  ( 0.023659  0.011895  0.000001)
 38:    769.02   0.000879    4.44  0.000357  ( 0.004874 -0.018248  0.000001)
 39:    794.99   0.000022    0.11  0.000009  (-0.000024  0.000015  0.002938)
 40:    809.90   0.000175    0.88  0.000067  ( 0.000025 -0.000010 -0.008214)
 41:    836.14   0.001856    9.38  0.000693  ( 0.000003  0.000000  0.026316)
 42:    837.72   0.000084    0.42  0.000031  (-0.003659  0.004224  0.000000)
 43:    839.21   0.000078    0.39  0.000029  ( 0.000792  0.005310  0.000004)
 44:    849.39   0.000543    2.74  0.000199  (-0.000008 -0.000003  0.014122)
 45:    859.83   0.002964   14.98  0.001076  (-0.000015  0.000006 -0.032796)
 46:    877.25   0.005290   26.73  0.001882  (-0.000032 -0.000033 -0.043379)
 47:    894.07   0.013847   69.98  0.004833  (-0.000011 -0.000004  0.069522)
 48:    913.30   0.000036    0.18  0.000012  (-0.001871 -0.002966  0.000002)
 49:    952.21   0.000008    0.04  0.000003  ( 0.000001 -0.000060 -0.001636)
 50:    982.69   0.000011    0.06  0.000004  ( 0.000006  0.000015  0.001887)
 51:    992.22   0.000094    0.48  0.000030  (-0.000005  0.000020 -0.005448)
 52:    997.54   0.000000    0.00  0.000000  ( 0.000010 -0.000008 -0.000174)
 53:   1000.14   0.000008    0.04  0.000002  ( 0.000002  0.000014  0.001572)
 54:   1002.83   0.000250    1.26  0.000078  ( 0.008231  0.003168  0.000003)
 55:   1014.98   0.000033    0.17  0.000010  ( 0.003097 -0.000669 -0.000001)
 56:   1052.10   0.000473    2.39  0.000140  ( 0.005010 -0.010734  0.000001)
 57:   1143.46   0.001997   10.09  0.000545  (-0.011812 -0.020139  0.000000)
 58:   1154.66   0.000284    1.44  0.000077  (-0.008625  0.001565  0.000000)
 59:   1167.32   0.000919    4.64  0.000246  ( 0.008977 -0.012845  0.000001)
 60:   1172.38   0.000518    2.62  0.000138  (-0.010073  0.006027 -0.000001)
 61:   1191.88   0.000211    1.06  0.000055  (-0.006874 -0.002807  0.000000)
 62:   1217.35   0.000159    0.80  0.000041  ( 0.002691 -0.005779  0.000002)
 63:   1232.24   0.000213    1.08  0.000054  ( 0.003802 -0.006285  0.000001)
 64:   1247.91   0.000456    2.31  0.000114  ( 0.008478 -0.006496  0.000001)
 65:   1252.69   0.000154    0.78  0.000038  ( 0.004717 -0.004027  0.000000)
 66:   1255.08   0.000283    1.43  0.000070  ( 0.002709  0.007934 -0.000000)
 67:   1293.25   0.000962    4.86  0.000232  ( 0.008130 -0.012883  0.000000)
 68:   1304.86   0.001172    5.92  0.000280  ( 0.011839  0.011836 -0.000001)
 69:   1346.88   0.000663    3.35  0.000154  (-0.003488 -0.011892 -0.000000)
 70:   1372.27   0.000893    4.51  0.000203  (-0.012375 -0.007070 -0.000000)
 71:   1383.98   0.000519    2.62  0.000117  (-0.009526  0.005133  0.000000)
 72:   1405.79   0.001237    6.25  0.000275  (-0.012788  0.010540 -0.000001)
 73:   1410.26   0.000153    0.77  0.000034  ( 0.000109 -0.005811 -0.000000)
 74:   1429.71   0.000151    0.76  0.000033  (-0.001784 -0.005460 -0.000000)
 75:   1440.46   0.000295    1.49  0.000064  ( 0.001463  0.007856 -0.000001)
 76:   1451.91   0.000329    1.66  0.000071  ( 0.003353 -0.007715  0.000001)
 77:   1471.10   0.000383    1.93  0.000081  (-0.000302  0.009004  0.000000)
 78:   1479.98   0.000149    0.75  0.000031  ( 0.004244 -0.003670 -0.000000)
 79:   1503.09   0.000110    0.55  0.000023  ( 0.004715 -0.000746  0.000001)
 80:   1550.40   0.002265   11.45  0.000456  (-0.002235  0.021233 -0.000001)
 81:   1555.93   0.001884    9.52  0.000378  ( 0.018174  0.006896  0.000001)
 82:   1574.91   0.000903    4.56  0.000179  (-0.012998  0.003151 -0.000001)
 83:   1593.33   0.001492    7.54  0.000292  (-0.010787  0.013260 -0.000001)
 84:   1608.84   0.001044    5.28  0.000202  (-0.010158 -0.009965 -0.000000)
 85:   1663.73   0.003535   17.86  0.000663  (-0.024819 -0.006860 -0.000000)
 86:   1677.98   0.000838    4.23  0.000156  ( 0.008851  0.008804  0.000000)
 87:   1688.98   0.001287    6.51  0.000238  (-0.004432 -0.014772  0.000001)
 88:   1694.09   0.000552    2.79  0.000102  (-0.006863 -0.007387 -0.000000)
 89:   2126.37   0.000550    2.78  0.000081  ( 0.002773 -0.008547  0.000001)
 90:   3204.04   0.000040    0.20  0.000004  ( 0.001871  0.000638 -0.000000)
 91:   3204.94   0.000074    0.37  0.000007  ( 0.001431 -0.002266  0.000000)
 92:   3205.35   0.000164    0.83  0.000016  ( 0.003539  0.001865  0.000000)
 93:   3211.65   0.000455    2.30  0.000044  (-0.006557 -0.001101 -0.000000)
 94:   3220.60   0.001184    5.99  0.000115  ( 0.010571 -0.001736  0.000001)
 95:   3221.50   0.002791   14.11  0.000270  ( 0.001640  0.016362 -0.000000)
 96:   3222.59   0.000107    0.54  0.000010  ( 0.002025  0.002499  0.000000)
 97:   3238.57   0.000618    3.12  0.000060  ( 0.007614  0.001249  0.000000)
 98:   3240.19   0.000463    2.34  0.000045  (-0.003647 -0.005592 -0.000000)

--------------------------
THERMOCHEMISTRY AT 10000.00K
--------------------------

Temperature         ... 10000.00 K
Pressure            ... 1.00 atm
Total Mass          ... 297.34 AMU

Throughout the following assumptions are being made:
  (1) The electronic state is orbitally nondegenerate
      but the spin degeneracy is treated
  (2) There are no thermally accessible electronically excited states
  (3) Hindered rotations indicated by low frequency modes are not
      treated as such but are treated as vibrations and this may
      cause some error
  (4) All equations used are the standard statistical mechanics
      equations for an ideal gas
  (5) All vibrations are strictly harmonic

freq.      86.92  E(vib)   ...      19.75
freq.      89.45  E(vib)   ...      19.74
freq.     128.28  E(vib)   ...      19.69
freq.     169.73  E(vib)   ...      19.63
freq.     228.09  E(vib)   ...      19.55
freq.     297.13  E(vib)   ...      19.45
freq.     299.72  E(vib)   ...      19.45
freq.     316.06  E(vib)   ...      19.42
freq.     326.41  E(vib)   ...      19.41
freq.     359.21  E(vib)   ...      19.36
freq.     368.92  E(vib)   ...      19.35
freq.     388.68  E(vib)   ...      19.32
freq.     395.70  E(vib)   ...      19.31
freq.     447.66  E(vib)   ...      19.24
freq.     452.36  E(vib)   ...      19.23
freq.     465.12  E(vib)   ...      19.21
freq.     476.05  E(vib)   ...      19.20
freq.     497.94  E(vib)   ...      19.17
freq.     501.52  E(vib)   ...      19.16
freq.     507.88  E(vib)   ...      19.16
freq.     513.55  E(vib)   ...      19.15
freq.     543.27  E(vib)   ...      19.11
freq.     567.52  E(vib)   ...      19.07
freq.     584.03  E(vib)   ...      19.05
freq.     586.01  E(vib)   ...      19.05
freq.     639.72  E(vib)   ...      18.97
freq.     653.01  E(vib)   ...      18.95
freq.     683.60  E(vib)   ...      18.91
freq.     684.32  E(vib)   ...      18.91
freq.     688.79  E(vib)   ...      18.90
freq.     697.29  E(vib)   ...      18.89
freq.     746.92  E(vib)   ...      18.82
freq.     769.02  E(vib)   ...      18.79
freq.     794.99  E(vib)   ...      18.76
freq.     809.90  E(vib)   ...      18.74
freq.     836.14  E(vib)   ...      18.70
freq.     837.72  E(vib)   ...      18.70
freq.     839.21  E(vib)   ...      18.70
freq.     849.39  E(vib)   ...      18.68
freq.     859.83  E(vib)   ...      18.67
freq.     877.25  E(vib)   ...      18.64
freq.     894.07  E(vib)   ...      18.62
freq.     913.30  E(vib)   ...      18.60
freq.     952.21  E(vib)   ...      18.54
freq.     982.69  E(vib)   ...      18.50
freq.     992.22  E(vib)   ...      18.49
freq.     997.54  E(vib)   ...      18.48
freq.    1000.14  E(vib)   ...      18.48
freq.    1002.83  E(vib)   ...      18.47
freq.    1014.98  E(vib)   ...      18.46
freq.    1052.10  E(vib)   ...      18.41
freq.    1143.46  E(vib)   ...      18.28
freq.    1154.66  E(vib)   ...      18.27
freq.    1167.32  E(vib)   ...      18.25
freq.    1172.38  E(vib)   ...      18.24
freq.    1191.88  E(vib)   ...      18.22
freq.    1217.35  E(vib)   ...      18.18
freq.    1232.24  E(vib)   ...      18.16
freq.    1247.91  E(vib)   ...      18.14
freq.    1252.69  E(vib)   ...      18.14
freq.    1255.08  E(vib)   ...      18.13
freq.    1293.25  E(vib)   ...      18.08
freq.    1304.86  E(vib)   ...      18.07
freq.    1346.88  E(vib)   ...      18.01
freq.    1372.27  E(vib)   ...      17.98
freq.    1383.98  E(vib)   ...      17.96
freq.    1405.79  E(vib)   ...      17.93
freq.    1410.26  E(vib)   ...      17.92
freq.    1429.71  E(vib)   ...      17.90
freq.    1440.46  E(vib)   ...      17.88
freq.    1451.91  E(vib)   ...      17.87
freq.    1471.10  E(vib)   ...      17.84
freq.    1479.98  E(vib)   ...      17.83
freq.    1503.09  E(vib)   ...      17.80
freq.    1550.40  E(vib)   ...      17.74
freq.    1555.93  E(vib)   ...      17.73
freq.    1574.91  E(vib)   ...      17.71
freq.    1593.33  E(vib)   ...      17.68
freq.    1608.84  E(vib)   ...      17.66
freq.    1663.73  E(vib)   ...      17.59
freq.    1677.98  E(vib)   ...      17.57
freq.    1688.98  E(vib)   ...      17.56
freq.    1694.09  E(vib)   ...      17.55
freq.    2126.37  E(vib)   ...      16.99
freq.    3204.04  E(vib)   ...      15.64
freq.    3204.94  E(vib)   ...      15.64
freq.    3205.35  E(vib)   ...      15.64
freq.    3211.65  E(vib)   ...      15.63
freq.    3220.60  E(vib)   ...      15.62
freq.    3221.50  E(vib)   ...      15.62
freq.    3222.59  E(vib)   ...      15.62
freq.    3238.57  E(vib)   ...      15.60
freq.    3240.19  E(vib)   ...      15.60

------------
INNER ENERGY
------------

The inner energy is: U= E(el) + E(ZPE) + E(vib) + E(rot) + E(trans)
    E(el)   - is the total energy from the electronic structure calculation
              = E(kin-el) + E(nuc-el) + E(el-el) + E(nuc-nuc)
    E(ZPE)  - the the zero temperature vibrational energy from the frequency calculation
    E(vib)  - the the finite temperature correction to E(ZPE) due to population
              of excited vibrational states
    E(rot)  - is the rotational thermal energy
    E(trans)- is the translational thermal energy

Summary of contributions to the inner energy U:
Electronic energy                ...   -919.83356576 Eh
Zero point energy                ...      0.24535607 Eh     153.96 kcal/mol
Thermal vibrational correction   ...      2.70994862 Eh    1700.51 kcal/mol
Thermal rotational correction    ...      0.04750198 Eh      29.81 kcal/mol
Thermal translational correction ...      0.04750198 Eh      29.81 kcal/mol
-----------------------------------------------------------------------
Total thermal energy                   -916.78325711 Eh

Summary of corrections to the electronic energy:
(perhaps to be used in another calculation)
Total thermal correction                  2.80495257 Eh    1760.13 kcal/mol
Non-thermal (ZPE) correction              0.24535607 Eh     153.96 kcal/mol
-----------------------------------------------------------------------
Total correction                          3.05030864 Eh    1914.09 kcal/mol

--------
ENTHALPY
--------

The enthalpy is H = U + kB*T
                kB is Boltzmann's constant
Total free energy                 ...   -916.78325711 Eh
Thermal Enthalpy correction       ...      0.03166893 Eh      19.87 kcal/mol
-----------------------------------------------------------------------
Total Enthalpy                    ...   -916.75158819 Eh

Note: Rotational entropy computed according to Herzberg
Infrared and Raman Spectra, Chapter V,1, Van Nostrand Reinhold, 1945
Point Group:  Cs, Symmetry Number:   1
Rotational constants in cm-1:     0.011733     0.011303     0.005757

Vibrational entropy computed according to the QRRHO of S. Grimme

                             ****ORCA TERMINATED NORMALLY****
TOTAL RUN TIME: 0 days 8 hours 14 minutes 22 seconds 288 msec
