                         Program Version 5.0.4 -  RELEASE  -
|  1> !M062X def2-Tzvp opt freq PAL4
|  2>
|  3> *xyz 0 2
|  4>   C   2.46738420969044     -2.81263795783172     -0.00000966049012
|  5>   C   1.29021523102800     -3.51201377298185     -0.00004058752843
|  6>   C   0.03545823654551     -2.84357180192689     -0.00011700654154
|  7>   C   -1.20218758884439     -3.54318722424976     -0.00015075042869
|  8>   C   -2.39648198994610     -2.87343733279545     -0.00022388485081
|  9>   C   -2.44483130317816     -1.45256921864444     -0.00026846552257
| 10>   C   -3.66953458511693     -0.73051865229528     -0.00034472511273
| 11>   C   -3.68661914160231      0.63861472840141     -0.00038730418280
| 12>   C   -2.48033157917503      1.39101004534826     -0.00035686907249
| 13>   C   -2.46738422792533      2.81263810716101     -0.00040016524558
| 14>   C   -1.29021516017741      3.51201377026014     -0.00036907952599
| 15>   C   -0.03545824433177      2.84357164855152     -0.00029288255853
| 16>   C   1.20218752109912      3.54318714702554     -0.00025868906408
| 17>   C   2.39648192584401      2.87343728473768     -0.00018556866102
| 18>   C   2.44483133698195      1.45256923480284     -0.00014000970252
| 19>   C   3.66953468525759      0.73051872239281     -0.00006428529983
| 20>   C   3.68661917516395     -0.63861465299814     -0.00002177884745
| 21>   C   2.48033158796062     -1.39100989330468     -0.00005249628054
| 22>   C   1.24283538920719     -0.69700184097772     -0.00012812520396
| 23>   C   1.22507788089312      0.72785817295726     -0.00017277212960
| 24>   C   -0.01778931269948      1.42488311059932     -0.00024838531844
| 25>   C   -1.24283548786547      0.69700179739327     -0.00028095765872
| 26>   C   -1.22507784798994     -0.72785823769859     -0.00023664253283
| 27>   C   0.01778926369246     -1.42488327113558     -0.00016058910124
| 28>   H   3.41550123147825     -3.34209676159282      0.00004910526765
| 29>   H   1.30169328790670     -4.59787475323892     -0.00000731993262
| 30>   H   -1.18632309082569     -4.62898226472676     -0.00011753033763
| 31>   H   -3.33114883046848     -3.42627830125467     -0.00024867043727
| 32>   H   -4.60200524090237     -1.28700819551871     -0.00036909708835
| 33>   H   -4.63271390284347      1.17161298430852     -0.00044608968339
| 34>   H   -3.41550124203130      3.34209675863002     -0.00045950330323
| 35>   H   1.18632293779304      4.62898220026966     -0.00029320761784
| 36>   H   3.33114870064961      3.42627836580996     -0.00016042132367
| 37>   H   4.60200524894750      1.28700844288560     -0.00003923404308
| 38>   H   4.63271397793190     -1.17161304216713      0.00003686274508
| 39> **                         ****END OF INPUT****
 Total Charge           Charge          ....    0
 Multiplicity           Mult            ....    2
 Number of Electrons    NEL             ....  155
FINAL SINGLE POINT ENERGY      -921.157954254747
FINAL SINGLE POINT ENERGY      -921.160673375883
FINAL SINGLE POINT ENERGY      -921.161325462991
FINAL SINGLE POINT ENERGY      -921.161375145046
FINAL SINGLE POINT ENERGY      -921.161382238980
                    ***********************HURRAY********************

CARTESIAN COORDINATES (ANGSTROEM)
---------------------------------
  C      2.457920   -2.802689   -0.000008
  C      1.286088   -3.497069   -0.000036
  C      0.034705   -2.826501   -0.000119
  C     -1.199096   -3.529264   -0.000147
  C     -2.387275   -2.863878   -0.000230
  C     -2.433075   -1.444476   -0.000270
  C     -3.659424   -0.730567   -0.000349
  C     -3.681432    0.631837   -0.000388
  C     -2.476543    1.381711   -0.000357
  C     -2.474357    2.810465   -0.000398
  C     -1.285614    3.438021   -0.000362
  C     -0.020572    2.833882   -0.000290
  C      1.210867    3.538939   -0.000254
  C      2.394893    2.865518   -0.000184
  C      2.435171    1.445828   -0.000140
  C      3.659759    0.726972   -0.000070
  C      3.675460   -0.635164   -0.000027
  C      2.468118   -1.382952   -0.000052
  C      1.240615   -0.694962   -0.000127
  C      1.224742    0.726986   -0.000177
  C     -0.015665    1.421032   -0.000245
  C     -1.243563    0.699233   -0.000283
  C     -1.224003   -0.723387   -0.000237
  C      0.016935   -1.419131   -0.000163
  H      3.405017   -3.329066    0.000056
  H      1.292963   -4.580604    0.000001
  H     -1.178963   -4.612571   -0.000115
  H     -3.321294   -3.413176   -0.000252
  H     -4.585868   -1.292669   -0.000371
  H     -4.624088    1.165755   -0.000446
  H     -3.415184    3.348782   -0.000457
  H      1.188546    4.621038   -0.000290
  H      3.331302    3.410526   -0.000158
  H      4.588005    1.285863   -0.000048
  H      4.616603   -1.172137    0.000028

 Multiplicity           Mult            ....    2
 Number of Electrons    NEL             ....  155
 Basis Dimension        Dim             ....  810

ORBITAL ENERGIES
----------------
                 SPIN UP ORBITALS
  NO   OCC          E(Eh)            E(eV)
   0   1.0000     -10.571714      -287.6710
   1   1.0000     -10.563134      -287.4375
   2   1.0000     -10.562829      -287.4292
   3   1.0000     -10.562403      -287.4176
   4   1.0000     -10.558926      -287.3230
   5   1.0000     -10.558500      -287.3114
   6   1.0000     -10.558169      -287.3024
   7   1.0000     -10.557938      -287.2961
   8   1.0000     -10.557790      -287.2921
   9   1.0000     -10.557350      -287.2801
  10   1.0000     -10.556913      -287.2682
  11   1.0000     -10.556646      -287.2609
  12   1.0000     -10.556322      -287.2521
  13   1.0000     -10.552358      -287.1443
  14   1.0000     -10.551207      -287.1129
  15   1.0000     -10.550125      -287.0835
  16   1.0000     -10.549995      -287.0800
  17   1.0000     -10.549743      -287.0731
  18   1.0000     -10.549455      -287.0653
  19   1.0000     -10.549135      -287.0566
  20   1.0000     -10.549118      -287.0561
  21   1.0000     -10.548989      -287.0526
  22   1.0000     -10.548491      -287.0390
  23   1.0000     -10.548027      -287.0264
  24   1.0000      -1.023526       -27.8516
  25   1.0000      -0.985450       -26.8155
  26   1.0000      -0.983352       -26.7584
  27   1.0000      -0.933844       -25.4112
  28   1.0000      -0.932696       -25.3800
  29   1.0000      -0.913558       -24.8592
  30   1.0000      -0.881853       -23.9964
  31   1.0000      -0.864678       -23.5291
  32   1.0000      -0.846292       -23.0288
  33   1.0000      -0.844932       -22.9918
  34   1.0000      -0.812616       -22.1124
  35   1.0000      -0.810277       -22.0488
  36   1.0000      -0.727830       -19.8053
  37   1.0000      -0.725607       -19.7448
  38   1.0000      -0.724436       -19.7129
  39   1.0000      -0.720146       -19.5962
  40   1.0000      -0.711816       -19.3695
  41   1.0000      -0.646700       -17.5976
  42   1.0000      -0.638132       -17.3645
  43   1.0000      -0.622716       -16.9450
  44   1.0000      -0.619683       -16.8624
  45   1.0000      -0.609751       -16.5922
  46   1.0000      -0.596071       -16.2199
  47   1.0000      -0.552073       -15.0227
  48   1.0000      -0.549194       -14.9443
  49   1.0000      -0.536422       -14.5968
  50   1.0000      -0.532594       -14.4926
  51   1.0000      -0.529938       -14.4203
  52   1.0000      -0.517625       -14.0853
  53   1.0000      -0.512506       -13.9460
  54   1.0000      -0.498589       -13.5673
  55   1.0000      -0.493341       -13.4245
  56   1.0000      -0.490422       -13.3451
  57   1.0000      -0.480133       -13.0651
  58   1.0000      -0.471842       -12.8395
  59   1.0000      -0.466992       -12.7075
  60   1.0000      -0.465006       -12.6534
  61   1.0000      -0.464360       -12.6359
  62   1.0000      -0.440988       -11.9999
  63   1.0000      -0.431746       -11.7484
  64   1.0000      -0.427502       -11.6329
  65   1.0000      -0.423208       -11.5161
  66   1.0000      -0.405726       -11.0404
  67   1.0000      -0.402935       -10.9644
  68   1.0000      -0.388351       -10.5676
  69   1.0000      -0.384964       -10.4754
  70   1.0000      -0.377332       -10.2677
  71   1.0000      -0.336990        -9.1700
  72   1.0000      -0.327822        -8.9205
  73   1.0000      -0.311800        -8.4845
  74   1.0000      -0.310862        -8.4590
  75   1.0000      -0.306630        -8.3438
  76   1.0000      -0.255842        -6.9618
  77   1.0000      -0.253924        -6.9096
  78   0.0000      -0.039026        -1.0620
  79   0.0000      -0.038943        -1.0597
  80   0.0000       0.003532         0.0961
  81   0.0000       0.004582         0.1247
  82   0.0000       0.022241         0.6052

                 SPIN DOWN ORBITALS
  NO   OCC          E(Eh)            E(eV)
   0   1.0000     -10.563009      -287.4341
   1   1.0000     -10.561958      -287.4055
   2   1.0000     -10.561915      -287.4043
   3   1.0000     -10.561700      -287.3985
   4   1.0000     -10.558859      -287.3212
   5   1.0000     -10.558573      -287.3134
   6   1.0000     -10.558139      -287.3016
   7   1.0000     -10.557974      -287.2971
   8   1.0000     -10.557771      -287.2916
   9   1.0000     -10.557352      -287.2802
  10   1.0000     -10.556917      -287.2683
  11   1.0000     -10.556635      -287.2606
  12   1.0000     -10.556405      -287.2544
  13   1.0000     -10.552651      -287.1522
  14   1.0000     -10.550892      -287.1044
  15   1.0000     -10.550070      -287.0820
  16   1.0000     -10.549985      -287.0797
  17   1.0000     -10.549752      -287.0734
  18   1.0000     -10.549451      -287.0651
  19   1.0000     -10.549114      -287.0560
  20   1.0000     -10.549098      -287.0555
  21   1.0000     -10.549002      -287.0529
  22   1.0000     -10.548496      -287.0392
  23   1.0000     -10.548065      -287.0274
  24   1.0000      -1.022234       -27.8164
  25   1.0000      -0.983075       -26.7508
  26   1.0000      -0.981909       -26.7191
  27   1.0000      -0.931996       -25.3609
  28   1.0000      -0.929870       -25.3031
  29   1.0000      -0.911500       -24.8032
  30   1.0000      -0.878824       -23.9140
  31   1.0000      -0.862643       -23.4737
  32   1.0000      -0.846035       -23.0218
  33   1.0000      -0.841055       -22.8863
  34   1.0000      -0.811376       -22.0787
  35   1.0000      -0.805281       -21.9128
  36   1.0000      -0.726974       -19.7820
  37   1.0000      -0.724567       -19.7165
  38   1.0000      -0.722524       -19.6609
  39   1.0000      -0.718165       -19.5423
  40   1.0000      -0.704957       -19.1828
  41   1.0000      -0.644832       -17.5468
  42   1.0000      -0.635564       -17.2946
  43   1.0000      -0.621507       -16.9121
  44   1.0000      -0.619386       -16.8544
  45   1.0000      -0.600755       -16.3474
  46   1.0000      -0.592799       -16.1309
  47   1.0000      -0.551614       -15.0102
  48   1.0000      -0.545261       -14.8373
  49   1.0000      -0.533582       -14.5195
  50   1.0000      -0.531667       -14.4674
  51   1.0000      -0.529718       -14.4144
  52   1.0000      -0.512451       -13.9445
  53   1.0000      -0.511618       -13.9218
  54   1.0000      -0.497473       -13.5369
  55   1.0000      -0.492081       -13.3902
  56   1.0000      -0.489554       -13.3214
  57   1.0000      -0.476176       -12.9574
  58   1.0000      -0.469659       -12.7801
  59   1.0000      -0.464428       -12.6377
  60   1.0000      -0.463830       -12.6214
  61   1.0000      -0.458165       -12.4673
  62   1.0000      -0.440426       -11.9846
  63   1.0000      -0.429628       -11.6908
  64   1.0000      -0.426125       -11.5955
  65   1.0000      -0.422153       -11.4874
  66   1.0000      -0.403026       -10.9669
  67   1.0000      -0.401463       -10.9244
  68   1.0000      -0.383306       -10.4303
  69   1.0000      -0.381722       -10.3872
  70   1.0000      -0.376564       -10.2468
  71   1.0000      -0.333908        -9.0861
  72   1.0000      -0.326768        -8.8918
  73   1.0000      -0.310940        -8.4611
  74   1.0000      -0.309112        -8.4114
  75   1.0000      -0.254898        -6.9361
  76   1.0000      -0.250861        -6.8263
  77   0.0000      -0.058982        -1.6050
  78   0.0000      -0.039718        -1.0808
  79   0.0000      -0.034400        -0.9361
  80   0.0000       0.003543         0.0964
  81   0.0000       0.006554         0.1783

MULLIKEN ATOMIC CHARGES AND SPIN POPULATIONS
--------------------------------------------
   0 C :   -0.188357    0.004297
   1 C :   -0.176939   -0.004469
   2 C :    0.080732    0.005377
   3 C :   -0.184194   -0.010811
   4 C :   -0.184627    0.007305
   5 C :    0.089521   -0.014348
   6 C :   -0.180312    0.010809
   7 C :   -0.178038   -0.010572
   8 C :    0.152199    0.066664
   9 C :   -0.341312   -0.112951
  10 C :    0.230405    1.032595
  11 C :   -0.072990   -0.011893
  12 C :   -0.244580   -0.012442
  13 C :   -0.165018   -0.018137
  14 C :    0.084228    0.007966
  15 C :   -0.178102   -0.005849
  16 C :   -0.177279    0.005364
  17 C :    0.084583   -0.005091
  18 C :    0.017799    0.004978
  19 C :    0.038618   -0.008127
  20 C :    0.038533    0.060515
  21 C :   -0.043515   -0.028987
  22 C :    0.006701    0.013729
  23 C :    0.017972   -0.005566
  24 H :    0.133689   -0.000073
  25 H :    0.133427    0.000086
  26 H :    0.133099    0.000282
  27 H :    0.133529   -0.000107
  28 H :    0.133812    0.000435
  29 H :    0.134524    0.000414
  30 H :    0.130297    0.017376
  31 H :    0.138547    0.010650
  32 H :    0.134549    0.000606
  33 H :    0.134299    0.000103
  34 H :    0.134202   -0.000128
Sum of atomic charges         :   -0.0000000

LOEWDIN ATOMIC CHARGES AND SPIN POPULATIONS
-------------------------------------------
   0 C :   -0.099693    0.001932
   1 C :   -0.099505   -0.002333
   2 C :   -0.093356    0.001394
   3 C :   -0.100755   -0.006766
   4 C :   -0.099602    0.002101
   5 C :   -0.094819   -0.007335
   6 C :   -0.098355    0.005640
   7 C :   -0.101598   -0.001888
   8 C :   -0.087602    0.033351
   9 C :   -0.122128    0.053161
  10 C :    0.057700    0.796647
  11 C :   -0.114834    0.079653
  12 C :   -0.095864    0.016091
  13 C :   -0.098189   -0.007783
  14 C :   -0.092374    0.003124
  15 C :   -0.099809   -0.002770
  16 C :   -0.098593    0.002768
  17 C :   -0.093740   -0.002126
  18 C :   -0.004522    0.002784
  19 C :   -0.004963    0.003886
  20 C :    0.000866    0.029132
  21 C :   -0.006475   -0.014615
  22 C :   -0.004189    0.001386
  23 C :   -0.004616   -0.001883
  24 H :    0.149977    0.000032
  25 H :    0.150004    0.000014
  26 H :    0.149861    0.000021
  27 H :    0.149994    0.000001
  28 H :    0.150318    0.000413
  29 H :    0.150188    0.000062
  30 H :    0.153803    0.012757
  31 H :    0.152106    0.001112
  32 H :    0.150529    0.000043
  33 H :    0.150122    0.000004
  34 H :    0.150113   -0.000011

  Mayer bond orders larger than 0.100000
B(  0-C ,  1-C ) :   1.6410 B(  0-C , 17-C ) :   1.2420 B(  0-C , 24-H ) :   0.9335
B(  1-C ,  2-C ) :   1.2487 B(  1-C , 25-H ) :   0.9298 B(  2-C ,  3-C ) :   1.2433
B(  2-C , 23-C ) :   1.3093 B(  3-C ,  4-C ) :   1.6423 B(  3-C , 26-H ) :   0.9318
B(  4-C ,  5-C ) :   1.2401 B(  4-C , 27-H ) :   0.9338 B(  5-C ,  6-C ) :   1.2462
B(  5-C , 22-C ) :   1.3057 B(  6-C ,  7-C ) :   1.6348 B(  6-C , 28-H ) :   0.9322
B(  7-C ,  8-C ) :   1.2360 B(  7-C , 29-H ) :   0.9360 B(  8-C ,  9-C ) :   1.1184
B(  8-C , 21-C ) :   1.2845 B(  9-C , 10-C ) :   1.7351 B(  9-C , 30-H ) :   0.9687
B( 10-C , 11-C ) :   1.3558 B( 11-C , 12-C ) :   1.2380 B( 11-C , 20-C ) :   1.2886
B( 12-C , 13-C ) :   1.6062 B( 12-C , 31-H ) :   0.9608 B( 13-C , 14-C ) :   1.2330
B( 13-C , 32-H ) :   0.9377 B( 14-C , 15-C ) :   1.2496 B( 14-C , 19-C ) :   1.3096
B( 15-C , 16-C ) :   1.6428 B( 15-C , 33-H ) :   0.9267 B( 16-C , 17-C ) :   1.2494
B( 16-C , 34-H ) :   0.9279 B( 17-C , 18-C ) :   1.3098 B( 18-C , 19-C ) :   1.1687
B( 18-C , 23-C ) :   1.1605 B( 19-C , 20-C ) :   1.1638 B( 20-C , 21-C ) :   1.1564
B( 21-C , 22-C ) :   1.1766 B( 22-C , 23-C ) :   1.1602

FINAL SINGLE POINT ENERGY      -921.161382844990

DIPOLE MOMENT
-------------
                                X             Y             Z
Electronic contribution:     -1.08529       3.75358      -0.00017
Nuclear contribution   :      1.16985      -4.11482       0.00018
                        -----------------------------------------
Total Dipole Moment    :      0.08457      -0.36125       0.00002
                        -----------------------------------------
Magnitude (a.u.)       :      0.37101
Magnitude (Debye)      :      0.94304

VIBRATIONAL FREQUENCIES
-----------------------

Scaling factor for frequencies =  1.000000000  (already applied!)

   0:         0.00 cm**-1
   1:         0.00 cm**-1
   2:         0.00 cm**-1
   3:         0.00 cm**-1
   4:         0.00 cm**-1
   5:         0.00 cm**-1
   6:        88.44 cm**-1
   7:        90.78 cm**-1
   8:       124.72 cm**-1
   9:       167.61 cm**-1
  10:       227.88 cm**-1
  11:       298.06 cm**-1
  12:       299.74 cm**-1
  13:       301.42 cm**-1
  14:       312.97 cm**-1
  15:       369.34 cm**-1
  16:       371.75 cm**-1
  17:       384.02 cm**-1
  18:       390.18 cm**-1
  19:       456.27 cm**-1
  20:       465.69 cm**-1
  21:       478.68 cm**-1
  22:       495.73 cm**-1
  23:       496.23 cm**-1
  24:       501.16 cm**-1
  25:       534.08 cm**-1
  26:       554.32 cm**-1
  27:       564.87 cm**-1
  28:       571.39 cm**-1
  29:       578.86 cm**-1
  30:       642.33 cm**-1
  31:       663.00 cm**-1
  32:       682.36 cm**-1
  33:       685.60 cm**-1
  34:       689.33 cm**-1
  35:       691.16 cm**-1
  36:       695.89 cm**-1
  37:       778.54 cm**-1
  38:       786.80 cm**-1
  39:       789.51 cm**-1
  40:       799.64 cm**-1
  41:       812.24 cm**-1
  42:       837.90 cm**-1
  43:       839.71 cm**-1
  44:       854.17 cm**-1
  45:       864.75 cm**-1
  46:       870.99 cm**-1
  47:       883.39 cm**-1
  48:       893.69 cm**-1
  49:       939.85 cm**-1
  50:       976.93 cm**-1
  51:       979.62 cm**-1
  52:       985.47 cm**-1
  53:       990.38 cm**-1
  54:       995.51 cm**-1
  55:      1000.53 cm**-1
  56:      1018.35 cm**-1
  57:      1023.27 cm**-1
  58:      1062.28 cm**-1
  59:      1141.37 cm**-1
  60:      1159.53 cm**-1
  61:      1171.68 cm**-1
  62:      1182.44 cm**-1
  63:      1184.73 cm**-1
  64:      1201.30 cm**-1
  65:      1215.14 cm**-1
  66:      1244.49 cm**-1
  67:      1249.10 cm**-1
  68:      1254.50 cm**-1
  69:      1257.41 cm**-1
  70:      1260.66 cm**-1
  71:      1332.96 cm**-1
  72:      1342.93 cm**-1
  73:      1384.20 cm**-1
  74:      1391.06 cm**-1
  75:      1405.60 cm**-1
  76:      1439.60 cm**-1
  77:      1441.51 cm**-1
  78:      1452.87 cm**-1
  79:      1457.09 cm**-1
  80:      1476.37 cm**-1
  81:      1482.36 cm**-1
  82:      1490.83 cm**-1
  83:      1507.40 cm**-1
  84:      1543.18 cm**-1
  85:      1556.39 cm**-1
  86:      1558.32 cm**-1
  87:      1591.74 cm**-1
  88:      1621.72 cm**-1
  89:      1667.57 cm**-1
  90:      1683.17 cm**-1
  91:      1692.09 cm**-1
  92:      1696.26 cm**-1
  93:      1697.12 cm**-1
  94:      3202.07 cm**-1
  95:      3202.57 cm**-1
  96:      3202.87 cm**-1
  97:      3203.12 cm**-1
  98:      3203.44 cm**-1
  99:      3208.29 cm**-1
 100:      3218.61 cm**-1
 101:      3219.49 cm**-1
 102:      3220.18 cm**-1
 103:      3220.50 cm**-1
 104:      3227.98 cm**-1

IR SPECTRUM
-----------

 Mode   freq       eps      Int      T**2         TX        TY        TZ
       cm**-1   L/(mol*cm) km/mol    a.u.
----------------------------------------------------------------------------
  6:     88.44   0.000000    0.00  0.000001  ( 0.000031 -0.000001 -0.001114)
  7:     90.78   0.000014    0.07  0.000049  (-0.000040 -0.000009  0.007027)
  8:    124.72   0.001215    6.14  0.003039  (-0.000001  0.000027 -0.055127)
  9:    167.61   0.000005    0.02  0.000008  (-0.000006  0.000031 -0.002898)
 10:    227.88   0.000014    0.07  0.000020  ( 0.000003  0.000021  0.004427)
 11:    298.06   0.000000    0.00  0.000000  ( 0.000020 -0.000021  0.000524)
 12:    299.74   0.000000    0.00  0.000000  (-0.000003  0.000002 -0.000066)
 13:    301.42   0.000004    0.02  0.000004  ( 0.000016  0.000004 -0.002096)
 14:    312.97   0.000077    0.39  0.000077  ( 0.000016 -0.000029  0.008775)
 15:    369.34   0.000042    0.21  0.000035  ( 0.005201 -0.002890 -0.000000)
 16:    371.75   0.000008    0.04  0.000007  ( 0.000619  0.002527  0.000000)
 17:    384.02   0.000767    3.88  0.000623  ( 0.016517 -0.018717  0.000002)
 18:    390.18   0.000518    2.62  0.000415  (-0.014192 -0.014602 -0.000001)
 19:    456.27   0.000125    0.63  0.000085  ( 0.000001  0.000009  0.009243)
 20:    465.69   0.000171    0.86  0.000115  ( 0.000003  0.000021 -0.010709)
 21:    478.68   0.000018    0.09  0.000012  (-0.000086 -0.003426 -0.000001)
 22:    495.73   0.000004    0.02  0.000002  (-0.001477  0.000440  0.000001)
 23:    496.23   0.000008    0.04  0.000005  ( 0.002085  0.000742  0.000001)
 24:    501.16   0.000031    0.16  0.000019  (-0.003037  0.003193  0.000000)
 25:    534.08   0.000660    3.33  0.000385  ( 0.000008  0.000001  0.019630)
 26:    554.32   0.001068    5.40  0.000601  (-0.000009 -0.000000  0.024525)
 27:    564.87   0.001894    9.57  0.001046  (-0.000001  0.000008 -0.032349)
 28:    571.39   0.000038    0.19  0.000021  ( 0.002655 -0.003678 -0.000000)
 29:    578.86   0.004475   22.61  0.002412  (-0.000001  0.000010 -0.049116)
 30:    642.33   0.000031    0.16  0.000015  (-0.000073  0.003872 -0.000001)
 31:    663.00   0.000039    0.20  0.000019  ( 0.000007  0.000002 -0.004304)
 32:    682.36   0.000014    0.07  0.000006  ( 0.002533  0.000074 -0.000001)
 33:    685.60   0.000011    0.05  0.000005  (-0.000002  0.000005 -0.002217)
 34:    689.33   0.000047    0.24  0.000021  (-0.002614 -0.003813  0.000000)
 35:    691.16   0.000002    0.01  0.000001  ( 0.000036  0.001046 -0.000003)
 36:    695.89   0.000087    0.44  0.000039  (-0.000002 -0.000016 -0.006264)
 37:    778.54   0.001654    8.36  0.000663  ( 0.023432  0.010664  0.000002)
 38:    786.80   0.001713    8.66  0.000679  (-0.006918  0.025130  0.000000)
 39:    789.51   0.000024    0.12  0.000009  (-0.000009  0.000024 -0.003074)
 40:    799.64   0.000003    0.02  0.000001  ( 0.000017 -0.000012 -0.001109)
 41:    812.24   0.000188    0.95  0.000072  ( 0.000004 -0.000013  0.008488)
 42:    837.90   0.000019    0.10  0.000007  (-0.002085 -0.001701 -0.000001)
 43:    839.71   0.000064    0.32  0.000024  ( 0.000639 -0.004825 -0.000006)
 44:    854.17   0.000772    3.90  0.000282  ( 0.000009 -0.000024  0.016793)
 45:    864.75   0.000202    1.02  0.000073  (-0.000021  0.000007 -0.008536)
 46:    870.99   0.000002    0.01  0.000001  (-0.000015 -0.000009 -0.000873)
 47:    883.39   0.007955   40.20  0.002810  (-0.000003 -0.000023  0.053012)
 48:    893.69   0.019814  100.13  0.006919  ( 0.000010 -0.000008 -0.083180)
 49:    939.85   0.000018    0.09  0.000006  (-0.001353  0.002069  0.000000)
 50:    976.93   0.000000    0.00  0.000000  ( 0.000033  0.000103 -0.000270)
 51:    979.62   0.000000    0.00  0.000000  ( 0.000012  0.000033 -0.000296)
 52:    985.47   0.000007    0.03  0.000002  ( 0.000004  0.000023  0.001457)
 53:    990.38   0.000015    0.08  0.000005  (-0.000003  0.000001 -0.002196)
 54:    995.51   0.000002    0.01  0.000001  (-0.000010  0.000023 -0.000813)
 55:   1000.53   0.000005    0.02  0.000001  (-0.000022 -0.000011  0.001210)
 56:   1018.35   0.000061    0.31  0.000019  ( 0.001980 -0.003825 -0.000001)
 57:   1023.27   0.000004    0.02  0.000001  (-0.001009 -0.000488  0.000001)
 58:   1062.28   0.000045    0.23  0.000013  (-0.003613 -0.000310 -0.000002)
 59:   1141.37   0.000145    0.73  0.000040  ( 0.004698 -0.004177 -0.000000)
 60:   1159.53   0.001634    8.26  0.000440  (-0.010561 -0.018119  0.000002)
 61:   1171.68   0.001237    6.25  0.000329  (-0.015052  0.010139 -0.000001)
 62:   1182.44   0.000052    0.27  0.000014  (-0.003225 -0.001858 -0.000001)
 63:   1184.73   0.000090    0.46  0.000024  (-0.000670 -0.004828 -0.000000)
 64:   1201.30   0.000023    0.12  0.000006  (-0.001534  0.001888  0.000001)
 65:   1215.14   0.000132    0.67  0.000034  ( 0.005702 -0.001209  0.000002)
 66:   1244.49   0.000093    0.47  0.000023  ( 0.004763 -0.000760  0.000001)
 67:   1249.10   0.000062    0.32  0.000016  (-0.001100  0.003791  0.000001)
 68:   1254.50   0.000100    0.51  0.000025  ( 0.004274  0.002587  0.000000)
 69:   1257.41   0.000013    0.06  0.000003  (-0.001440 -0.001026 -0.000000)
 70:   1260.66   0.000001    0.00  0.000000  (-0.000434 -0.000002  0.000001)
 71:   1332.96   0.002760   13.95  0.000646  (-0.019066  0.016809 -0.000001)
 72:   1342.93   0.004571   23.10  0.001062  (-0.021253 -0.024708  0.000000)
 73:   1384.20   0.000690    3.49  0.000156  ( 0.005304 -0.011288 -0.000000)
 74:   1391.06   0.000327    1.66  0.000073  (-0.007743  0.003675 -0.000000)
 75:   1405.60   0.000338    1.71  0.000075  ( 0.004829 -0.007188  0.000000)
 76:   1439.60   0.000006    0.03  0.000001  (-0.000978 -0.000522  0.000001)
 77:   1441.51   0.000035    0.17  0.000007  ( 0.000162 -0.002729 -0.000001)
 78:   1452.87   0.000025    0.12  0.000005  ( 0.002025 -0.001079  0.000001)
 79:   1457.09   0.000046    0.23  0.000010  ( 0.002589  0.001758  0.000000)
 80:   1476.37   0.000046    0.23  0.000010  (-0.001040 -0.002953  0.000001)
 81:   1482.36   0.000011    0.06  0.000002  (-0.000402  0.001471  0.000000)
 82:   1490.83   0.000188    0.95  0.000039  (-0.002255  0.005855 -0.000001)
 83:   1507.40   0.000006    0.03  0.000001  ( 0.001015  0.000479  0.000001)
 84:   1543.18   0.000759    3.84  0.000154  (-0.008922 -0.008598 -0.000000)
 85:   1556.39   0.001099    5.55  0.000220  (-0.006278  0.013450 -0.000001)
 86:   1558.32   0.000094    0.47  0.000019  (-0.000725  0.004268 -0.000000)
 87:   1591.74   0.000128    0.65  0.000025  (-0.003591  0.003487  0.000000)
 88:   1621.72   0.000182    0.92  0.000035  (-0.001894  0.005605 -0.000000)
 89:   1667.57   0.000487    2.46  0.000091  ( 0.004503  0.008413 -0.000000)
 90:   1683.17   0.001562    7.89  0.000290  ( 0.003182  0.016716  0.000000)
 91:   1692.09   0.000560    2.83  0.000103  (-0.009958 -0.002018 -0.000000)
 92:   1696.26   0.000147    0.74  0.000027  (-0.002085  0.004759 -0.000001)
 93:   1697.12   0.000527    2.66  0.000097  (-0.009747  0.001366 -0.000001)
 94:   3202.07   0.000075    0.38  0.000007  ( 0.002504  0.001018 -0.000000)
 95:   3202.57   0.000064    0.32  0.000006  (-0.002490  0.000104 -0.000000)
 96:   3202.87   0.000241    1.22  0.000023  ( 0.002337 -0.004241  0.000000)
 97:   3203.12   0.000017    0.09  0.000002  ( 0.000404  0.001239  0.000000)
 98:   3203.44   0.000055    0.28  0.000005  (-0.001174 -0.002000  0.000000)
 99:   3208.29   0.000299    1.51  0.000029  (-0.004109 -0.003486 -0.000000)
100:   3218.61   0.000447    2.26  0.000043  (-0.006115  0.002430 -0.000001)
101:   3219.49   0.002569   12.99  0.000249  (-0.001942 -0.015662  0.000000)
102:   3220.18   0.004771   24.11  0.000462  ( 0.021123 -0.004017  0.000001)
103:   3220.50   0.001549    7.83  0.000150  ( 0.009974  0.007113  0.000000)
104:   3227.98   0.001409    7.12  0.000136  ( 0.006987  0.009347  0.000000)

--------------------------
THERMOCHEMISTRY AT 298.15K
--------------------------

Temperature         ... 298.15 K
Pressure            ... 1.00 atm
Total Mass          ... 299.35 AMU

Throughout the following assumptions are being made:
  (1) The electronic state is orbitally nondegenerate
      but the spin degeneracy is treated
  (2) There are no thermally accessible electronically excited states
  (3) Hindered rotations indicated by low frequency modes are not
      treated as such but are treated as vibrations and this may
      cause some error
  (4) All equations used are the standard statistical mechanics
      equations for an ideal gas
  (5) All vibrations are strictly harmonic

freq.      88.44  E(vib)   ...       0.48
freq.      90.78  E(vib)   ...       0.47
freq.     124.72  E(vib)   ...       0.43
freq.     167.61  E(vib)   ...       0.38
freq.     227.88  E(vib)   ...       0.33
freq.     298.06  E(vib)   ...       0.27
freq.     299.74  E(vib)   ...       0.26
freq.     301.42  E(vib)   ...       0.26
freq.     312.97  E(vib)   ...       0.25
freq.     369.34  E(vib)   ...       0.21
freq.     371.75  E(vib)   ...       0.21
freq.     384.02  E(vib)   ...       0.20
freq.     390.18  E(vib)   ...       0.20
freq.     456.27  E(vib)   ...       0.16
freq.     465.69  E(vib)   ...       0.16
freq.     478.68  E(vib)   ...       0.15
freq.     495.73  E(vib)   ...       0.14
freq.     496.23  E(vib)   ...       0.14
freq.     501.16  E(vib)   ...       0.14
freq.     534.08  E(vib)   ...       0.13
freq.     554.32  E(vib)   ...       0.12
freq.     564.87  E(vib)   ...       0.11
freq.     571.39  E(vib)   ...       0.11
freq.     578.86  E(vib)   ...       0.11
freq.     642.33  E(vib)   ...       0.09
freq.     663.00  E(vib)   ...       0.08
freq.     682.36  E(vib)   ...       0.08
freq.     685.60  E(vib)   ...       0.07
freq.     689.33  E(vib)   ...       0.07
freq.     691.16  E(vib)   ...       0.07
freq.     695.89  E(vib)   ...       0.07
freq.     778.54  E(vib)   ...       0.05
freq.     786.80  E(vib)   ...       0.05
freq.     789.51  E(vib)   ...       0.05
freq.     799.64  E(vib)   ...       0.05
freq.     812.24  E(vib)   ...       0.05
freq.     837.90  E(vib)   ...       0.04
freq.     839.71  E(vib)   ...       0.04
freq.     854.17  E(vib)   ...       0.04
freq.     864.75  E(vib)   ...       0.04
freq.     870.99  E(vib)   ...       0.04
freq.     883.39  E(vib)   ...       0.04
freq.     893.69  E(vib)   ...       0.03
freq.     939.85  E(vib)   ...       0.03
freq.     976.93  E(vib)   ...       0.03
freq.     979.62  E(vib)   ...       0.03
freq.     985.47  E(vib)   ...       0.02
freq.     990.38  E(vib)   ...       0.02
freq.     995.51  E(vib)   ...       0.02
freq.    1000.53  E(vib)   ...       0.02
freq.    1018.35  E(vib)   ...       0.02
freq.    1023.27  E(vib)   ...       0.02
freq.    1062.28  E(vib)   ...       0.02
freq.    1141.37  E(vib)   ...       0.01
freq.    1159.53  E(vib)   ...       0.01
freq.    1171.68  E(vib)   ...       0.01
freq.    1182.44  E(vib)   ...       0.01
freq.    1184.73  E(vib)   ...       0.01
freq.    1201.30  E(vib)   ...       0.01
freq.    1215.14  E(vib)   ...       0.01
freq.    1244.49  E(vib)   ...       0.01
freq.    1249.10  E(vib)   ...       0.01
freq.    1254.50  E(vib)   ...       0.01
freq.    1257.41  E(vib)   ...       0.01
freq.    1260.66  E(vib)   ...       0.01
freq.    1332.96  E(vib)   ...       0.01
freq.    1342.93  E(vib)   ...       0.01
freq.    1384.20  E(vib)   ...       0.00
freq.    1391.06  E(vib)   ...       0.00
freq.    1405.60  E(vib)   ...       0.00
freq.    1439.60  E(vib)   ...       0.00
freq.    1441.51  E(vib)   ...       0.00
freq.    1452.87  E(vib)   ...       0.00
freq.    1457.09  E(vib)   ...       0.00
freq.    1476.37  E(vib)   ...       0.00
freq.    1482.36  E(vib)   ...       0.00
freq.    1490.83  E(vib)   ...       0.00
freq.    1507.40  E(vib)   ...       0.00
freq.    1543.18  E(vib)   ...       0.00
freq.    1556.39  E(vib)   ...       0.00
freq.    1558.32  E(vib)   ...       0.00
freq.    1591.74  E(vib)   ...       0.00
freq.    1621.72  E(vib)   ...       0.00
freq.    1667.57  E(vib)   ...       0.00
freq.    1683.17  E(vib)   ...       0.00
freq.    1692.09  E(vib)   ...       0.00
freq.    1696.26  E(vib)   ...       0.00
freq.    1697.12  E(vib)   ...       0.00
freq.    3202.07  E(vib)   ...       0.00
freq.    3202.57  E(vib)   ...       0.00
freq.    3202.87  E(vib)   ...       0.00
freq.    3203.12  E(vib)   ...       0.00
freq.    3203.44  E(vib)   ...       0.00
freq.    3208.29  E(vib)   ...       0.00
freq.    3218.61  E(vib)   ...       0.00
freq.    3219.49  E(vib)   ...       0.00
freq.    3220.18  E(vib)   ...       0.00
freq.    3220.50  E(vib)   ...       0.00
freq.    3227.98  E(vib)   ...       0.00

------------
INNER ENERGY
------------

The inner energy is: U= E(el) + E(ZPE) + E(vib) + E(rot) + E(trans)
    E(el)   - is the total energy from the electronic structure calculation
              = E(kin-el) + E(nuc-el) + E(el-el) + E(nuc-nuc)
    E(ZPE)  - the the zero temperature vibrational energy from the frequency calculation
    E(vib)  - the the finite temperature correction to E(ZPE) due to population
              of excited vibrational states
    E(rot)  - is the rotational thermal energy
    E(trans)- is the translational thermal energy

Summary of contributions to the inner energy U:
Electronic energy                ...   -921.16138284 Eh
Zero point energy                ...      0.27023903 Eh     169.58 kcal/mol
Thermal vibrational correction   ...      0.01103730 Eh       6.93 kcal/mol
Thermal rotational correction    ...      0.00141627 Eh       0.89 kcal/mol
Thermal translational correction ...      0.00141627 Eh       0.89 kcal/mol
-----------------------------------------------------------------------
Total thermal energy                   -920.87727398 Eh

Summary of corrections to the electronic energy:
(perhaps to be used in another calculation)
Total thermal correction                  0.01386984 Eh       8.70 kcal/mol
Non-thermal (ZPE) correction              0.27023903 Eh     169.58 kcal/mol
-----------------------------------------------------------------------
Total correction                          0.28410887 Eh     178.28 kcal/mol

--------
ENTHALPY
--------

The enthalpy is H = U + kB*T
                kB is Boltzmann's constant
Total free energy                 ...   -920.87727398 Eh
Thermal Enthalpy correction       ...      0.00094421 Eh       0.59 kcal/mol
-----------------------------------------------------------------------
Total Enthalpy                    ...   -920.87632977 Eh

Rotational constants in cm-1:     0.011446     0.011202     0.005661

                             ****ORCA TERMINATED NORMALLY****
TOTAL RUN TIME: 0 days 8 hours 36 minutes 13 seconds 816 msec
