                         Program Version 5.0.4 -  RELEASE  -
|  1> !M062x def2-tzvp opt freq tightscf
|  2>
|  3> %freq
|  4> Temp 298.15,10,20,50,100,6000,8000,10000
|  5> end
|  6>
|  7> %maxcore 4000
|  8> %pal
|  9> nprocs 3
| 10> end
| 11>
| 12>
| 13> %geom
| 14>   maxiter 2000
| 15>   end
| 16>
| 17> * xyz 0 1
| 18>   C   2.46362427987247     -2.85071308273857     -0.00000218907091
| 19>   C   1.27719400513090     -3.52585311672403     -0.00003902795947
| 20>   C   0.05064934326115     -2.82613554872827     -0.00011828018749
| 21>   C   -1.19925193688694     -3.46606389677068     -0.00015928151260
| 22>   C   -2.39885271805658     -2.87183824187673     -0.00023283554738
| 23>   C   -2.43518053153382     -1.44080024452875     -0.00027277196623
| 24>   C   -3.66777674509120     -0.75191121775761     -0.00034379554662
| 25>   C   -3.71279324924276      0.61270000430768     -0.00038290810371
| 26>   C   -2.51870888891228      1.35470401292599     -0.00035207453727
| 27>   C   -2.33852946574720      2.75004532075493     -0.00038523866368
| 28>   C   -1.29227857579710      3.37936032270345     -0.00036005870682
| 29>   C   0.02296635156368      2.87874227377718     -0.00029143038758
| 30>   C   1.23211767469076      3.59211777508479     -0.00026457178571
| 31>   C   2.42594730830480      2.92563510630820     -0.00019121984698
| 32>   C   2.44893445959464      1.52227723319545     -0.00014614397662
| 33>   C   3.55845924150033      0.65762020353451     -0.00006795876215
| 34>   C   3.57066637986837     -0.56331157183495     -0.00002324805222
| 35>   C   2.47403114247392     -1.44414615823703     -0.00004617494814
| 36>   C   1.25557023434205     -0.69183165762109     -0.00012491861115
| 37>   C   1.23800989899349      0.75081893774134     -0.00017659337158
| 38>   C   -0.00359548669936      1.44369816359284     -0.00024809051538
| 39>   C   -1.24385874208543      0.70472511229996     -0.00028011039122
| 40>   C   -1.22033926149096     -0.71624674943317     -0.00023589301594
| 41>   C   0.03056944314590     -1.40895937212992     -0.00016349124726
| 42>   H   3.40592714860256     -3.38099880595279      0.00006084796734
| 43>   H   1.25543248807529     -4.60779790743838     -0.00000593698860
| 44>   H   -4.58380467774224     -1.32989113444890     -0.00036599782084
| 45>   H   -4.65611295060898      1.14148914368134     -0.00043697075864
| 46>   H   1.19941226127863      4.67287271493635     -0.00030009286005
| 47>   H   3.36338199069149      3.46449630946482     -0.00016807868239
| 48> *
| 49>
| 50>                          ****END OF INPUT****
 Total Charge           Charge          ....    0
 Multiplicity           Mult            ....    1
 Number of Electrons    NEL             ....  150
FINAL SINGLE POINT ENERGY      -917.836560927161
FINAL SINGLE POINT ENERGY      -917.858445340815
FINAL SINGLE POINT ENERGY      -917.862118416063
FINAL SINGLE POINT ENERGY      -917.863009921713
FINAL SINGLE POINT ENERGY      -917.863190907027
FINAL SINGLE POINT ENERGY      -917.863254453145
FINAL SINGLE POINT ENERGY      -917.863313098203
FINAL SINGLE POINT ENERGY      -917.863338196369
FINAL SINGLE POINT ENERGY      -917.863348461873
                    ***********************HURRAY********************

CARTESIAN COORDINATES (ANGSTROEM)
---------------------------------
  C      2.489992   -2.854024   -0.000004
  C      1.313810   -3.551454   -0.000036
  C      0.089644   -2.868080   -0.000113
  C     -1.210767   -3.405364   -0.000156
  C     -2.274552   -2.808532   -0.000224
  C     -2.494049   -1.418493   -0.000276
  C     -3.716085   -0.730919   -0.000348
  C     -3.733178    0.636717   -0.000387
  C     -2.528463    1.354292   -0.000354
  C     -2.342328    2.749258   -0.000387
  C     -1.294380    3.373514   -0.000360
  C      0.018956    2.867529   -0.000291
  C      1.225681    3.581258   -0.000261
  C      2.418970    2.913416   -0.000190
  C      2.439150    1.511692   -0.000146
  C      3.553500    0.652789   -0.000070
  C      3.569408   -0.566767   -0.000026
  C      2.475808   -1.452163   -0.000049
  C      1.246826   -0.708337   -0.000124
  C      1.228948    0.737504   -0.000179
  C     -0.010235    1.431841   -0.000248
  C     -1.253385    0.693781   -0.000281
  C     -1.235668   -0.726447   -0.000237
  C      0.025305   -1.433178   -0.000162
  H      3.441657   -3.367178    0.000059
  H      1.307644   -4.632660   -0.000001
  H     -4.634743   -1.301213   -0.000371
  H     -4.665539    1.184280   -0.000441
  H      1.192132    4.661937   -0.000297
  H      3.357754    3.449804   -0.000165

 Multiplicity           Mult            ....    1
 Number of Electrons    NEL             ....  150
 Basis Dimension        Dim             ....  780

ORBITAL ENERGIES
----------------

  NO   OCC          E(Eh)            E(eV)
   0   2.0000     -10.595650      -288.3223
   1   2.0000     -10.595625      -288.3216
   2   2.0000     -10.595597      -288.3209
   3   2.0000     -10.595575      -288.3203
   4   2.0000     -10.595549      -288.3196
   5   2.0000     -10.595529      -288.3190
   6   2.0000     -10.585864      -288.0560
   7   2.0000     -10.585606      -288.0490
   8   2.0000     -10.585572      -288.0481
   9   2.0000     -10.584958      -288.0314
  10   2.0000     -10.584922      -288.0304
  11   2.0000     -10.584642      -288.0227
  12   2.0000     -10.566747      -287.5358
  13   2.0000     -10.566557      -287.5306
  14   2.0000     -10.566531      -287.5299
  15   2.0000     -10.565830      -287.5108
  16   2.0000     -10.565633      -287.5055
  17   2.0000     -10.565611      -287.5049
  18   2.0000     -10.558480      -287.3109
  19   2.0000     -10.558469      -287.3106
  20   2.0000     -10.558384      -287.3082
  21   2.0000     -10.555959      -287.2422
  22   2.0000     -10.555954      -287.2421
  23   2.0000     -10.555867      -287.2397
  24   2.0000      -1.039754       -28.2931
  25   2.0000      -1.002619       -27.2826
  26   2.0000      -1.002593       -27.2819
  27   2.0000      -0.951753       -25.8985
  28   2.0000      -0.951728       -25.8978
  29   2.0000      -0.925997       -25.1977
  30   2.0000      -0.901195       -24.5228
  31   2.0000      -0.878847       -23.9146
  32   2.0000      -0.856013       -23.2933
  33   2.0000      -0.855946       -23.2915
  34   2.0000      -0.824660       -22.4402
  35   2.0000      -0.824608       -22.4387
  36   2.0000      -0.746521       -20.3139
  37   2.0000      -0.746419       -20.3111
  38   2.0000      -0.722710       -19.6659
  39   2.0000      -0.713038       -19.4027
  40   2.0000      -0.712989       -19.4014
  41   2.0000      -0.672523       -18.3003
  42   2.0000      -0.627080       -17.0637
  43   2.0000      -0.622575       -16.9411
  44   2.0000      -0.622522       -16.9397
  45   2.0000      -0.601170       -16.3587
  46   2.0000      -0.587416       -15.9844
  47   2.0000      -0.562046       -15.2941
  48   2.0000      -0.562002       -15.2928
  49   2.0000      -0.539772       -14.6879
  50   2.0000      -0.539702       -14.6860
  51   2.0000      -0.529234       -14.4012
  52   2.0000      -0.519117       -14.1259
  53   2.0000      -0.519025       -14.1234
  54   2.0000      -0.514646       -14.0042
  55   2.0000      -0.485702       -13.2166
  56   2.0000      -0.485677       -13.2160
  57   2.0000      -0.470748       -12.8097
  58   2.0000      -0.470601       -12.8057
  59   2.0000      -0.466370       -12.6906
  60   2.0000      -0.456074       -12.4104
  61   2.0000      -0.427343       -11.6286
  62   2.0000      -0.427147       -11.6232
  63   2.0000      -0.425309       -11.5732
  64   2.0000      -0.425285       -11.5726
  65   2.0000      -0.403507       -10.9800
  66   2.0000      -0.358827        -9.7642
  67   2.0000      -0.345671        -9.4062
  68   2.0000      -0.341004        -9.2792
  69   2.0000      -0.336851        -9.1662
  70   2.0000      -0.336818        -9.1653
  71   2.0000      -0.326763        -8.8917
  72   2.0000      -0.326740        -8.8910
  73   2.0000      -0.272300        -7.4097
  74   2.0000      -0.272279        -7.4091
  75   0.0000      -0.054374        -1.4796
  76   0.0000      -0.054368        -1.4794
  77   0.0000      -0.046970        -1.2781
  78   0.0000      -0.046835        -1.2744
  79   0.0000      -0.045396        -1.2353

MULLIKEN ATOMIC CHARGES
-----------------------
   0 C :   -0.194515
   1 C :   -0.198208
   2 C :    0.089922
   3 C :   -0.069287
   4 C :   -0.071822
   5 C :    0.090132
   6 C :   -0.194729
   7 C :   -0.198229
   8 C :    0.091279
   9 C :   -0.069546
  10 C :   -0.068956
  11 C :    0.086144
  12 C :   -0.195735
  13 C :   -0.198676
  14 C :    0.087314
  15 C :   -0.065918
  16 C :   -0.071764
  17 C :    0.090420
  18 C :    0.022962
  19 C :    0.024627
  20 C :    0.027973
  21 C :    0.024315
  22 C :    0.024466
  23 C :    0.028157
  24 H :    0.152001
  25 H :    0.151019
  26 H :    0.151940
  27 H :    0.151936
  28 H :    0.151187
  29 H :    0.151593
Sum of atomic charges:   -0.0000000

LOEWDIN ATOMIC CHARGES
----------------------
   0 C :   -0.090543
   1 C :   -0.090514
   2 C :   -0.093564
   3 C :    0.017069
   4 C :    0.017179
   5 C :   -0.093442
   6 C :   -0.090349
   7 C :   -0.090404
   8 C :   -0.093379
   9 C :    0.017475
  10 C :    0.016724
  11 C :   -0.093635
  12 C :   -0.090448
  13 C :   -0.090541
  14 C :   -0.093468
  15 C :    0.017218
  16 C :    0.016808
  17 C :   -0.093515
  18 C :    0.010873
  19 C :    0.010995
  20 C :    0.010661
  21 C :    0.010710
  22 C :    0.010664
  23 C :    0.010736
  24 H :    0.156117
  25 H :    0.156100
  26 H :    0.156134
  27 H :    0.156113
  28 H :    0.156101
  29 H :    0.156125

  Mayer bond orders larger than 0.100000
B(  0-C ,  1-C ) :   1.5224 B(  0-C , 17-C ) :   1.3070 B(  0-C , 24-H ) :   0.9476
B(  1-C ,  2-C ) :   1.3049 B(  1-C , 25-H ) :   0.9503 B(  2-C ,  3-C ) :   1.1394
B(  2-C , 23-C ) :   1.2771 B(  3-C ,  4-C ) :   2.5610 B(  4-C ,  5-C ) :   1.1432
B(  5-C ,  6-C ) :   1.3089 B(  5-C , 22-C ) :   1.2774 B(  6-C ,  7-C ) :   1.5226
B(  6-C , 26-H ) :   0.9468 B(  7-C ,  8-C ) :   1.3065 B(  7-C , 27-H ) :   0.9487
B(  8-C ,  9-C ) :   1.1440 B(  8-C , 21-C ) :   1.2767 B(  9-C , 10-C ) :   2.5615
B( 10-C , 11-C ) :   1.1404 B( 11-C , 12-C ) :   1.3058 B( 11-C , 20-C ) :   1.2775
B( 12-C , 13-C ) :   1.5216 B( 12-C , 28-H ) :   0.9494 B( 13-C , 14-C ) :   1.3059
B( 13-C , 29-H ) :   0.9500 B( 14-C , 15-C ) :   1.1439 B( 14-C , 19-C ) :   1.2765
B( 15-C , 16-C ) :   2.5608 B( 16-C , 17-C ) :   1.1399 B( 17-C , 18-C ) :   1.2757
B( 18-C , 19-C ) :   1.2333 B( 18-C , 23-C ) :   1.1721 B( 19-C , 20-C ) :   1.1683
B( 20-C , 21-C ) :   1.2259 B( 21-C , 22-C ) :   1.1723 B( 22-C , 23-C ) :   1.2249

FINAL SINGLE POINT ENERGY      -917.863349655109

DIPOLE MOMENT
-------------
                                X             Y             Z
Electronic contribution:     -0.00192      -0.00006      -0.00001
Nuclear contribution   :     -0.00167       0.00001       0.00001
                        -----------------------------------------
Total Dipole Moment    :     -0.00359      -0.00005       0.00000
                        -----------------------------------------
Magnitude (a.u.)       :      0.00359
Magnitude (Debye)      :      0.00913

VIBRATIONAL FREQUENCIES
-----------------------

Scaling factor for frequencies =  1.000000000  (already applied!)

   0:         0.00 cm**-1
   1:         0.00 cm**-1
   2:         0.00 cm**-1
   3:         0.00 cm**-1
   4:         0.00 cm**-1
   5:         0.00 cm**-1
   6:        85.55 cm**-1
   7:        86.35 cm**-1
   8:       131.11 cm**-1
   9:       181.64 cm**-1
  10:       227.00 cm**-1
  11:       295.83 cm**-1
  12:       297.04 cm**-1
  13:       348.77 cm**-1
  14:       349.99 cm**-1
  15:       352.50 cm**-1
  16:       353.03 cm**-1
  17:       402.09 cm**-1
  18:       402.67 cm**-1
  19:       407.84 cm**-1
  20:       451.94 cm**-1
  21:       452.64 cm**-1
  22:       462.40 cm**-1
  23:       463.26 cm**-1
  24:       470.54 cm**-1
  25:       487.11 cm**-1
  26:       502.10 cm**-1
  27:       522.16 cm**-1
  28:       524.50 cm**-1
  29:       525.10 cm**-1
  30:       525.68 cm**-1
  31:       591.68 cm**-1
  32:       603.60 cm**-1
  33:       619.01 cm**-1
  34:       685.05 cm**-1
  35:       685.56 cm**-1
  36:       686.71 cm**-1
  37:       716.10 cm**-1
  38:       716.34 cm**-1
  39:       819.77 cm**-1
  40:       820.11 cm**-1
  41:       836.73 cm**-1
  42:       837.01 cm**-1
  43:       852.68 cm**-1
  44:       854.98 cm**-1
  45:       858.31 cm**-1
  46:       859.82 cm**-1
  47:       897.74 cm**-1
  48:       986.21 cm**-1
  49:       986.66 cm**-1
  50:       995.74 cm**-1
  51:       997.10 cm**-1
  52:       999.56 cm**-1
  53:      1033.20 cm**-1
  54:      1133.75 cm**-1
  55:      1134.64 cm**-1
  56:      1148.94 cm**-1
  57:      1184.41 cm**-1
  58:      1232.75 cm**-1
  59:      1248.74 cm**-1
  60:      1248.95 cm**-1
  61:      1253.72 cm**-1
  62:      1254.08 cm**-1
  63:      1255.62 cm**-1
  64:      1331.16 cm**-1
  65:      1331.77 cm**-1
  66:      1349.07 cm**-1
  67:      1387.02 cm**-1
  68:      1387.84 cm**-1
  69:      1416.96 cm**-1
  70:      1417.71 cm**-1
  71:      1423.27 cm**-1
  72:      1466.63 cm**-1
  73:      1477.62 cm**-1
  74:      1478.68 cm**-1
  75:      1576.03 cm**-1
  76:      1609.52 cm**-1
  77:      1609.99 cm**-1
  78:      1625.64 cm**-1
  79:      1657.71 cm**-1
  80:      1658.31 cm**-1
  81:      2125.49 cm**-1
  82:      2155.46 cm**-1
  83:      2155.94 cm**-1
  84:      3231.24 cm**-1
  85:      3231.54 cm**-1
  86:      3231.76 cm**-1
  87:      3245.72 cm**-1
  88:      3245.80 cm**-1
  89:      3246.56 cm**-1

IR SPECTRUM
-----------

 Mode   freq       eps      Int      T**2         TX        TY        TZ
       cm**-1   L/(mol*cm) km/mol    a.u.
----------------------------------------------------------------------------
  6:     85.55   0.000000    0.00  0.000001  ( 0.000031  0.000007  0.001130)
  7:     86.35   0.000000    0.00  0.000001  (-0.000012 -0.000104 -0.001182)
  8:    131.11   0.000698    3.53  0.001661  (-0.000049  0.000004  0.040758)
  9:    181.64   0.000244    1.23  0.000419  ( 0.000006  0.000010 -0.020463)
 10:    227.00   0.000000    0.00  0.000000  ( 0.000009 -0.000014  0.000049)
 11:    295.83   0.000000    0.00  0.000000  ( 0.000019 -0.000013 -0.000361)
 12:    297.04   0.000000    0.00  0.000000  ( 0.000031 -0.000014 -0.000350)
 13:    348.77   0.000000    0.00  0.000000  ( 0.000016  0.000002 -0.000129)
 14:    349.99   0.000000    0.00  0.000000  (-0.000005 -0.000027  0.000036)
 15:    352.50   0.002867   14.49  0.002539  (-0.033694 -0.037459 -0.000000)
 16:    353.03   0.002790   14.10  0.002466  (-0.037071  0.033038 -0.000003)
 17:    402.09   0.000226    1.14  0.000175  ( 0.013150 -0.001584  0.000000)
 18:    402.67   0.000234    1.18  0.000181  ( 0.001908  0.013324 -0.000000)
 19:    407.84   0.000001    0.01  0.000001  ( 0.000906 -0.000491  0.000000)
 20:    451.94   0.000000    0.00  0.000000  ( 0.000010  0.000004  0.000366)
 21:    452.64   0.000000    0.00  0.000000  (-0.000008  0.000015 -0.000385)
 22:    462.40   0.019372   97.90  0.013074  ( 0.053605  0.100996 -0.000001)
 23:    463.26   0.019509   98.59  0.013142  (-0.101305  0.053658 -0.000006)
 24:    470.54   0.000013    0.07  0.000009  ( 0.002803 -0.000971  0.000000)
 25:    487.11   0.000000    0.00  0.000000  (-0.000011  0.000012  0.000037)
 26:    502.10   0.000001    0.00  0.000000  ( 0.000574 -0.000088 -0.000000)
 27:    522.16   0.000001    0.00  0.000000  (-0.000018 -0.000020 -0.000573)
 28:    524.50   0.000000    0.00  0.000000  ( 0.000001 -0.000108  0.000299)
 29:    525.10   0.002826   14.28  0.001680  (-0.040949 -0.001650 -0.000002)
 30:    525.68   0.003165   15.99  0.001879  ( 0.001478 -0.043318 -0.000000)
 31:    591.68   0.000000    0.00  0.000000  (-0.000012 -0.000104  0.000002)
 32:    603.60   0.003347   16.91  0.001730  ( 0.000028 -0.000003 -0.041595)
 33:    619.01   0.000000    0.00  0.000000  ( 0.000013 -0.000007  0.000170)
 34:    685.05   0.000000    0.00  0.000000  (-0.000001 -0.000020 -0.000210)
 35:    685.56   0.000000    0.00  0.000000  ( 0.000008 -0.000015 -0.000079)
 36:    686.71   0.000000    0.00  0.000000  ( 0.000056  0.000196 -0.000000)
 37:    716.10   0.000042    0.21  0.000018  ( 0.004244 -0.000625  0.000001)
 38:    716.34   0.000047    0.24  0.000020  ( 0.000488  0.004488 -0.000001)
 39:    819.77   0.000005    0.03  0.000002  (-0.000016 -0.000002 -0.001430)
 40:    820.11   0.000001    0.00  0.000000  ( 0.000014 -0.000021  0.000536)
 41:    836.73   0.000310    1.57  0.000116  (-0.001870 -0.010594  0.000003)
 42:    837.01   0.000280    1.41  0.000104  ( 0.010001 -0.002078  0.000010)
 43:    852.68   0.001324    6.69  0.000485  ( 0.000007  0.000040  0.022015)
 44:    854.98   0.002931   14.81  0.001070  ( 0.000031 -0.000069 -0.032709)
 45:    858.31   0.013762   69.55  0.005004  (-0.000017 -0.000031  0.070737)
 46:    859.82   0.000000    0.00  0.000000  ( 0.000045 -0.000038 -0.000023)
 47:    897.74   0.000000    0.00  0.000000  ( 0.000034 -0.000002 -0.000060)
 48:    986.21   0.000178    0.90  0.000056  ( 0.007434 -0.000972 -0.000000)
 49:    986.66   0.000161    0.81  0.000051  (-0.001034 -0.007058 -0.000001)
 50:    995.74   0.000015    0.07  0.000005  (-0.000005  0.000003 -0.002134)
 51:    997.10   0.000006    0.03  0.000002  (-0.000039 -0.000036 -0.001392)
 52:    999.56   0.000003    0.01  0.000001  (-0.000014  0.000008  0.000926)
 53:   1033.20   0.000010    0.05  0.000003  ( 0.001768 -0.000015  0.000001)
 54:   1133.75   0.002626   13.27  0.000723  (-0.000924 -0.026867  0.000001)
 55:   1134.64   0.002254   11.39  0.000620  ( 0.024875 -0.001043  0.000001)
 56:   1148.94   0.000001    0.01  0.000000  ( 0.000356 -0.000399 -0.000001)
 57:   1184.41   0.000005    0.03  0.000001  ( 0.001199  0.000067  0.000000)
 58:   1232.75   0.000012    0.06  0.000003  (-0.001725 -0.000143 -0.000001)
 59:   1248.74   0.002468   12.47  0.000617  ( 0.023620 -0.007670  0.000001)
 60:   1248.95   0.002156   10.89  0.000539  (-0.008089 -0.021752  0.000000)
 61:   1253.72   0.000049    0.25  0.000012  ( 0.003267 -0.001217  0.000000)
 62:   1254.08   0.000159    0.80  0.000039  ( 0.001804  0.006020 -0.000000)
 63:   1255.62   0.000001    0.01  0.000000  ( 0.000446 -0.000396  0.000000)
 64:   1331.16   0.000061    0.31  0.000014  (-0.000086  0.003791  0.000000)
 65:   1331.77   0.000049    0.25  0.000012  ( 0.003395  0.000070 -0.000000)
 66:   1349.07   0.000000    0.00  0.000000  (-0.000052 -0.000104 -0.000000)
 67:   1387.02   0.000065    0.33  0.000015  (-0.003822  0.000150  0.000000)
 68:   1387.84   0.000126    0.64  0.000028  ( 0.000017  0.005321  0.000000)
 69:   1416.96   0.000123    0.62  0.000027  (-0.005188 -0.000469 -0.000001)
 70:   1417.71   0.000117    0.59  0.000026  (-0.000367  0.005056 -0.000001)
 71:   1423.27   0.000003    0.01  0.000001  (-0.000745 -0.000174  0.000000)
 72:   1466.63   0.000000    0.00  0.000000  (-0.000026  0.000130 -0.000000)
 73:   1477.62   0.000022    0.11  0.000005  (-0.002171  0.000047 -0.000000)
 74:   1478.68   0.000024    0.12  0.000005  (-0.000013 -0.002250  0.000000)
 75:   1576.03   0.000002    0.01  0.000000  ( 0.000673 -0.000002  0.000000)
 76:   1609.52   0.012535   63.34  0.002430  ( 0.047541 -0.013044  0.000003)
 77:   1609.99   0.012781   64.59  0.002477  ( 0.012960  0.048055 -0.000001)
 78:   1625.64   0.000003    0.01  0.000001  ( 0.000621 -0.000349 -0.000000)
 79:   1657.71   0.001272    6.43  0.000239  (-0.007176 -0.013710  0.000000)
 80:   1658.31   0.001253    6.33  0.000236  (-0.013505  0.007303 -0.000001)
 81:   2125.49   0.000001    0.00  0.000000  (-0.000298 -0.000072 -0.000001)
 82:   2155.46   0.000361    1.82  0.000052  ( 0.005038 -0.005179  0.000000)
 83:   2155.94   0.000359    1.81  0.000052  ( 0.005181  0.005012  0.000000)
 84:   3231.24   0.000001    0.00  0.000000  ( 0.000058  0.000286  0.000000)
 85:   3231.54   0.000001    0.01  0.000000  (-0.000334  0.000133  0.000000)
 86:   3231.76   0.000003    0.01  0.000000  (-0.000051 -0.000491  0.000000)
 87:   3245.72   0.000134    0.68  0.000013  (-0.002130  0.002892 -0.000000)
 88:   3245.80   0.000132    0.67  0.000013  ( 0.002140  0.002856  0.000000)
 89:   3246.56   0.000142    0.72  0.000014  ( 0.003692  0.000057  0.000000)

--------------------------
THERMOCHEMISTRY AT 10000.00K
--------------------------

Temperature         ... 10000.00 K
Pressure            ... 1.00 atm
Total Mass          ... 294.31 AMU

Throughout the following assumptions are being made:
  (1) The electronic state is orbitally nondegenerate
  (2) There are no thermally accessible electronically excited states
  (3) Hindered rotations indicated by low frequency modes are not
      treated as such but are treated as vibrations and this may
      cause some error
  (4) All equations used are the standard statistical mechanics
      equations for an ideal gas
  (5) All vibrations are strictly harmonic

freq.      85.55  E(vib)   ...      19.75
freq.      86.35  E(vib)   ...      19.75
freq.     131.11  E(vib)   ...      19.69
freq.     181.64  E(vib)   ...      19.61
freq.     227.00  E(vib)   ...      19.55
freq.     295.83  E(vib)   ...      19.45
freq.     297.04  E(vib)   ...      19.45
freq.     348.77  E(vib)   ...      19.38
freq.     349.99  E(vib)   ...      19.38
freq.     352.50  E(vib)   ...      19.37
freq.     353.03  E(vib)   ...      19.37
freq.     402.09  E(vib)   ...      19.30
freq.     402.67  E(vib)   ...      19.30
freq.     407.84  E(vib)   ...      19.30
freq.     451.94  E(vib)   ...      19.23
freq.     452.64  E(vib)   ...      19.23
freq.     462.40  E(vib)   ...      19.22
freq.     463.26  E(vib)   ...      19.22
freq.     470.54  E(vib)   ...      19.21
freq.     487.11  E(vib)   ...      19.18
freq.     502.10  E(vib)   ...      19.16
freq.     522.16  E(vib)   ...      19.14
freq.     524.50  E(vib)   ...      19.13
freq.     525.10  E(vib)   ...      19.13
freq.     525.68  E(vib)   ...      19.13
freq.     591.68  E(vib)   ...      19.04
freq.     603.60  E(vib)   ...      19.02
freq.     619.01  E(vib)   ...      19.00
freq.     685.05  E(vib)   ...      18.91
freq.     685.56  E(vib)   ...      18.91
freq.     686.71  E(vib)   ...      18.91
freq.     716.10  E(vib)   ...      18.87
freq.     716.34  E(vib)   ...      18.87
freq.     819.77  E(vib)   ...      18.72
freq.     820.11  E(vib)   ...      18.72
freq.     836.73  E(vib)   ...      18.70
freq.     837.01  E(vib)   ...      18.70
freq.     852.68  E(vib)   ...      18.68
freq.     854.98  E(vib)   ...      18.68
freq.     858.31  E(vib)   ...      18.67
freq.     859.82  E(vib)   ...      18.67
freq.     897.74  E(vib)   ...      18.62
freq.     986.21  E(vib)   ...      18.50
freq.     986.66  E(vib)   ...      18.50
freq.     995.74  E(vib)   ...      18.48
freq.     997.10  E(vib)   ...      18.48
freq.     999.56  E(vib)   ...      18.48
freq.    1033.20  E(vib)   ...      18.43
freq.    1133.75  E(vib)   ...      18.30
freq.    1134.64  E(vib)   ...      18.29
freq.    1148.94  E(vib)   ...      18.28
freq.    1184.41  E(vib)   ...      18.23
freq.    1232.75  E(vib)   ...      18.16
freq.    1248.74  E(vib)   ...      18.14
freq.    1248.95  E(vib)   ...      18.14
freq.    1253.72  E(vib)   ...      18.13
freq.    1254.08  E(vib)   ...      18.13
freq.    1255.62  E(vib)   ...      18.13
freq.    1331.16  E(vib)   ...      18.03
freq.    1331.77  E(vib)   ...      18.03
freq.    1349.07  E(vib)   ...      18.01
freq.    1387.02  E(vib)   ...      17.96
freq.    1387.84  E(vib)   ...      17.95
freq.    1416.96  E(vib)   ...      17.92
freq.    1417.71  E(vib)   ...      17.91
freq.    1423.27  E(vib)   ...      17.91
freq.    1466.63  E(vib)   ...      17.85
freq.    1477.62  E(vib)   ...      17.83
freq.    1478.68  E(vib)   ...      17.83
freq.    1576.03  E(vib)   ...      17.70
freq.    1609.52  E(vib)   ...      17.66
freq.    1609.99  E(vib)   ...      17.66
freq.    1625.64  E(vib)   ...      17.64
freq.    1657.71  E(vib)   ...      17.60
freq.    1658.31  E(vib)   ...      17.60
freq.    2125.49  E(vib)   ...      16.99
freq.    2155.46  E(vib)   ...      16.95
freq.    2155.94  E(vib)   ...      16.95
freq.    3231.24  E(vib)   ...      15.61
freq.    3231.54  E(vib)   ...      15.61
freq.    3231.76  E(vib)   ...      15.61
freq.    3245.72  E(vib)   ...      15.59
freq.    3245.80  E(vib)   ...      15.59
freq.    3246.56  E(vib)   ...      15.59

------------
INNER ENERGY
------------

The inner energy is: U= E(el) + E(ZPE) + E(vib) + E(rot) + E(trans)
    E(el)   - is the total energy from the electronic structure calculation
              = E(kin-el) + E(nuc-el) + E(el-el) + E(nuc-nuc)
    E(ZPE)  - the the zero temperature vibrational energy from the frequency calculation
    E(vib)  - the the finite temperature correction to E(ZPE) due to population
              of excited vibrational states
    E(rot)  - is the rotational thermal energy
    E(trans)- is the translational thermal energy

Summary of contributions to the inner energy U:
Electronic energy                ...   -917.86334966 Eh
Zero point energy                ...      0.20826677 Eh     130.69 kcal/mol
Thermal vibrational correction   ...      2.46004323 Eh    1543.70 kcal/mol
Thermal rotational correction    ...      0.04750198 Eh      29.81 kcal/mol
Thermal translational correction ...      0.04750198 Eh      29.81 kcal/mol
-----------------------------------------------------------------------
Total thermal energy                   -915.10003570 Eh

Summary of corrections to the electronic energy:
(perhaps to be used in another calculation)
Total thermal correction                  2.55504718 Eh    1603.31 kcal/mol
Non-thermal (ZPE) correction              0.20826677 Eh     130.69 kcal/mol
-----------------------------------------------------------------------
Total correction                          2.76331395 Eh    1734.00 kcal/mol

--------
ENTHALPY
--------

The enthalpy is H = U + kB*T
                kB is Boltzmann's constant
Total free energy                 ...   -915.10003570 Eh
Thermal Enthalpy correction       ...      0.03166893 Eh      19.87 kcal/mol
-----------------------------------------------------------------------
Total Enthalpy                    ...   -915.06836678 Eh

Note: Rotational entropy computed according to Herzberg
Infrared and Raman Spectra, Chapter V,1, Van Nostrand Reinhold, 1945
Point Group:  Cs, Symmetry Number:   1
Rotational constants in cm-1:     0.011808     0.011805     0.005903

Vibrational entropy computed according to the QRRHO of S. Grimme
Chem.Eur.J. 2012 18 9955

-------
ENTROPY
-------

The entropy contributions are T*S = T*(S(el)+S(vib)+S(rot)+S(trans))
     S(el)   - electronic entropy
     S(vib)  - vibrational entropy

                             ****ORCA TERMINATED NORMALLY****
TOTAL RUN TIME: 0 days 4 hours 32 minutes 29 seconds 572 msec
