                         Program Version 5.0.4 -  RELEASE  -
|  1> !b3lyp 6-311+g** d4 moread UKS
|  2>
|  3> %moinp "Stone-Wales_defect_loss_eight_orca6.0.gbw"
|  4>
|  5> %scf
|  6>   stabperform true
|  7>   stabdtol 0.00001
|  8>   stabrtol 0.00001
|  9>   end
| 10>
| 11> %maxcore 5000
| 12> %pal
| 13> nprocs 8
| 14> end
| 15>
| 16> %tddft
| 17>   nroots 1000
| 18>   end
| 19>
| 20> * xyz 0 1
| 21>   C   2.64677421432996     -3.23839622498648      0.00422147310361
| 22>   C   1.57174458858647     -3.87473140354969      0.00358333406275
| 23>   C   0.41260432106449     -3.06326470212235      0.00438073012683
| 24>   C   -0.92829278422802     -3.47508720048048      0.00395332087197
| 25>   C   -2.09297755524028     -2.73648157822942      0.00466585109472
| 26>   C   -2.21333690041290     -1.33066509425227      0.00608193211152
| 27>   C   -3.42626295528207     -0.58948271655408      0.00681919371308
| 28>   C   -3.67563478812837      0.61967812555275      0.00805521529239
| 29>   C   -2.71144972706951      1.65166996227796      0.00912326725315
| 30>   C   -2.51629703655797      3.03611918458737      0.01053654785892
| 31>   C   -1.44483985356360      3.67012219068695      0.01118455172180
| 32>   C   -0.13728741840871      3.17542057672381      0.01067892044226
| 33>   C   1.23134541908029      3.52451227209350      0.01103383042187
| 34>   C   2.17092146406024      2.72366785951874      0.01021765074334
| 35>   C   2.23746174539702      1.30398873081684      0.00877624478226
| 36>   C   3.41193442441387      0.52212640148376      0.00799580576503
| 37>   C   3.49909882268844     -0.85427778797007      0.00661447764163
| 38>   C   2.49312117710644     -1.83184182356405      0.00562455686336
| 39>   C   0.30836952609245     -0.51399940320928      0.00693247773696
| 40>   C   -1.41959042081622      1.01482928301653      0.00848276383496
| 41>   C   -1.15287372180037     -0.37244020810873      0.00706955961394
| 42>   C   1.00436239231080     -1.68985586306334      0.00576169250620
| 43>   H   -1.05421447151150     -4.55302845942121      0.00287592109981
| 44>   H   -3.02447748164697     -3.28913584142590      0.00409558982765
| 45>   H   4.34468993260132      1.07267593021159      0.00855283214918
| 46>   H   4.50478466908576     -1.26221559122214      0.00620909867069
| 47>   C   0.88727329211473      0.83509171807148      0.00829761005761
| 48>   C   -0.20043087426579      1.73645166311816      0.00921555063249
| 49> **                         ****END OF INPUT****

CARTESIAN COORDINATES (ANGSTROEM)
---------------------------------
  C      2.646774   -3.238396    0.004221
  C      1.571745   -3.874731    0.003583
  C      0.412604   -3.063265    0.004381
  C     -0.928293   -3.475087    0.003953
  C     -2.092978   -2.736482    0.004666
  C     -2.213337   -1.330665    0.006082
  C     -3.426263   -0.589483    0.006819
  C     -3.675635    0.619678    0.008055
  C     -2.711450    1.651670    0.009123
  C     -2.516297    3.036119    0.010537
  C     -1.444840    3.670122    0.011185
  C     -0.137287    3.175421    0.010679
  C      1.231345    3.524512    0.011034
  C      2.170921    2.723668    0.010218
  C      2.237462    1.303989    0.008776
  C      3.411934    0.522126    0.007996
  C      3.499099   -0.854278    0.006614
  C      2.493121   -1.831842    0.005625
  C      0.308370   -0.513999    0.006932
  C     -1.419590    1.014829    0.008483
  C     -1.152874   -0.372440    0.007070
  C      1.004362   -1.689856    0.005762
  H     -1.054214   -4.553028    0.002876
  H     -3.024477   -3.289136    0.004096
  H      4.344690    1.072676    0.008553
  H      4.504785   -1.262216    0.006209
  C      0.887273    0.835092    0.008298
  C     -0.200431    1.736452    0.009216

 Total Charge           Charge          ....    0
 Multiplicity           Mult            ....    1
 Number of Electrons    NEL             ....  148
 Basis Dimension        Dim             ....  552

ORBITAL ENERGIES
----------------
                 SPIN UP ORBITALS
  NO   OCC          E(Eh)            E(eV)
   0   1.0000     -10.257764      -279.1279
   1   1.0000     -10.257587      -279.1231
   2   1.0000     -10.247286      -278.8428
   3   1.0000     -10.247096      -278.8377
   4   1.0000     -10.242395      -278.7097
   5   1.0000     -10.240082      -278.6468
   6   1.0000     -10.230755      -278.3930
   7   1.0000     -10.230096      -278.3751
   8   1.0000     -10.219676      -278.0915
   9   1.0000     -10.219484      -278.0863
  10   1.0000     -10.214526      -277.9514
  11   1.0000     -10.214250      -277.9439
  12   1.0000     -10.213815      -277.9320
  13   1.0000     -10.213348      -277.9193
  14   1.0000     -10.212929      -277.9079
  15   1.0000     -10.211189      -277.8606
  16   1.0000     -10.209551      -277.8160
  17   1.0000     -10.209478      -277.8140
  18   1.0000     -10.207319      -277.7553
  19   1.0000     -10.207225      -277.7527
  20   1.0000     -10.206237      -277.7258
  21   1.0000     -10.203584      -277.6536
  22   1.0000     -10.203165      -277.6422
  23   1.0000     -10.197092      -277.4770
  24   1.0000      -0.950648       -25.8684
  25   1.0000      -0.919286       -25.0151
  26   1.0000      -0.899687       -24.4817
  27   1.0000      -0.875716       -23.8294
  28   1.0000      -0.850810       -23.1517
  29   1.0000      -0.844498       -22.9799
  30   1.0000      -0.815967       -22.2036
  31   1.0000      -0.795103       -21.6358
  32   1.0000      -0.779329       -21.2066
  33   1.0000      -0.756705       -20.5910
  34   1.0000      -0.744429       -20.2569
  35   1.0000      -0.732433       -19.9305
  36   1.0000      -0.684670       -18.6308
  37   1.0000      -0.674292       -18.3484
  38   1.0000      -0.657570       -17.8934
  39   1.0000      -0.640641       -17.4327
  40   1.0000      -0.594445       -16.1757
  41   1.0000      -0.587476       -15.9860
  42   1.0000      -0.583941       -15.8898
  43   1.0000      -0.565246       -15.3811
  44   1.0000      -0.543041       -14.7769
  45   1.0000      -0.535153       -14.5622
  46   1.0000      -0.529802       -14.4167
  47   1.0000      -0.518369       -14.1055
  48   1.0000      -0.493685       -13.4339
  49   1.0000      -0.487832       -13.2746
  50   1.0000      -0.470423       -12.8009
  51   1.0000      -0.464174       -12.6308
  52   1.0000      -0.451713       -12.2917
  53   1.0000      -0.441982       -12.0269
  54   1.0000      -0.440126       -11.9764
  55   1.0000      -0.427250       -11.6261
  56   1.0000      -0.414501       -11.2791
  57   1.0000      -0.410488       -11.1700
  58   1.0000      -0.408835       -11.1250
  59   1.0000      -0.392628       -10.6839
  60   1.0000      -0.381496       -10.3810
  61   1.0000      -0.373494       -10.1633
  62   1.0000      -0.358894        -9.7660
  63   1.0000      -0.358242        -9.7483
  64   1.0000      -0.311372        -8.4729
  65   1.0000      -0.303161        -8.2494
  66   1.0000      -0.302987        -8.2447
  67   1.0000      -0.298594        -8.1251
  68   1.0000      -0.295607        -8.0439
  69   1.0000      -0.289781        -7.8853
  70   1.0000      -0.289455        -7.8765
  71   1.0000      -0.260178        -7.0798
  72   1.0000      -0.250809        -6.8249
  73   1.0000      -0.212573        -5.7844
  74   0.0000      -0.125299        -3.4096
  75   0.0000      -0.117746        -3.2040
  76   0.0000      -0.111151        -3.0246
  77   0.0000      -0.101424        -2.7599
  78   0.0000      -0.096704        -2.6314

                 SPIN DOWN ORBITALS
  NO   OCC          E(Eh)            E(eV)
   0   1.0000     -10.257745      -279.1274
   1   1.0000     -10.257606      -279.1236
   2   1.0000     -10.247278      -278.8426
   3   1.0000     -10.247104      -278.8379
   4   1.0000     -10.242395      -278.7097
   5   1.0000     -10.240082      -278.6468
   6   1.0000     -10.230749      -278.3928
   7   1.0000     -10.230102      -278.3752
   8   1.0000     -10.219662      -278.0911
   9   1.0000     -10.219498      -278.0867
  10   1.0000     -10.214531      -277.9515
  11   1.0000     -10.214245      -277.9437
  12   1.0000     -10.213815      -277.9320
  13   1.0000     -10.213347      -277.9193
  14   1.0000     -10.212931      -277.9080
  15   1.0000     -10.211187      -277.8605
  16   1.0000     -10.209547      -277.8159
  17   1.0000     -10.209480      -277.8141
  18   1.0000     -10.207300      -277.7548
  19   1.0000     -10.207247      -277.7533
  20   1.0000     -10.206252      -277.7262
  21   1.0000     -10.203575      -277.6534
  22   1.0000     -10.203174      -277.6425
  23   1.0000     -10.197077      -277.4766
  24   1.0000      -0.950648       -25.8684
  25   1.0000      -0.919287       -25.0151
  26   1.0000      -0.899687       -24.4817
  27   1.0000      -0.875716       -23.8294
  28   1.0000      -0.850810       -23.1517
  29   1.0000      -0.844498       -22.9800
  30   1.0000      -0.815968       -22.2036
  31   1.0000      -0.795102       -21.6358
  32   1.0000      -0.779330       -21.2067
  33   1.0000      -0.756705       -20.5910
  34   1.0000      -0.744429       -20.2569
  35   1.0000      -0.732432       -19.9305
  36   1.0000      -0.684669       -18.6308
  37   1.0000      -0.674291       -18.3484
  38   1.0000      -0.657572       -17.8934
  39   1.0000      -0.640641       -17.4327
  40   1.0000      -0.594447       -16.1757
  41   1.0000      -0.587468       -15.9858
  42   1.0000      -0.583944       -15.8899
  43   1.0000      -0.565246       -15.3811
  44   1.0000      -0.543041       -14.7769
  45   1.0000      -0.535153       -14.5623
  46   1.0000      -0.529802       -14.4166
  47   1.0000      -0.518371       -14.1056
  48   1.0000      -0.493685       -13.4338
  49   1.0000      -0.487834       -13.2746
  50   1.0000      -0.470423       -12.8009
  51   1.0000      -0.464174       -12.6308
  52   1.0000      -0.451713       -12.2917
  53   1.0000      -0.441982       -12.0269
  54   1.0000      -0.440124       -11.9764
  55   1.0000      -0.427250       -11.6261
  56   1.0000      -0.414501       -11.2792
  57   1.0000      -0.410497       -11.1702
  58   1.0000      -0.408827       -11.1248
  59   1.0000      -0.392628       -10.6839
  60   1.0000      -0.381496       -10.3810
  61   1.0000      -0.373497       -10.1634
  62   1.0000      -0.358894        -9.7660
  63   1.0000      -0.358242        -9.7483
  64   1.0000      -0.311371        -8.4728
  65   1.0000      -0.303162        -8.2494
  66   1.0000      -0.302987        -8.2447
  67   1.0000      -0.298595        -8.1252
  68   1.0000      -0.295600        -8.0437
  69   1.0000      -0.289781        -7.8853
  70   1.0000      -0.289455        -7.8765
  71   1.0000      -0.260178        -7.0798
  72   1.0000      -0.250808        -6.8248
  73   1.0000      -0.212572        -5.7844
  74   0.0000      -0.125302        -3.4096
  75   0.0000      -0.117745        -3.2040
  76   0.0000      -0.111151        -3.0246
  77   0.0000      -0.101424        -2.7599
  78   0.0000      -0.096706        -2.6315

MULLIKEN ATOMIC CHARGES AND SPIN POPULATIONS
--------------------------------------------
   0 C :   -0.032957   -0.229605
   1 C :    0.001956    0.227442
   2 C :    0.905737    0.027135
   3 C :   -1.152273   -0.085941
   4 C :   -0.769556   -0.033147
   5 C :    0.988790    0.017405
   6 C :   -0.277806   -0.018278
   7 C :   -0.000628    0.013927
   8 C :    0.299978   -0.009936
   9 C :   -0.138661    0.012411
  10 C :   -0.138237   -0.012048
  11 C :    0.282209    0.010403
  12 C :    0.014764   -0.009587
  13 C :   -0.274507    0.013219
  14 C :    0.916658   -0.013350
  15 C :   -0.762601    0.029772
  16 C :   -1.077333    0.082564
  17 C :    0.875880   -0.018993
  18 C :    0.100825    0.000761
  19 C :    0.019340    0.004117
  20 C :    0.105857    0.004010
  21 C :   -0.621580   -0.002285
  22 H :    0.154961   -0.000338
  23 H :    0.147432    0.001290
  24 H :    0.147382   -0.001287
  25 H :    0.154589    0.000350
  26 C :    0.098620   -0.004550
  27 C :    0.031160   -0.005460
Sum of atomic charges         :   -0.0000000

LOEWDIN ATOMIC CHARGES AND SPIN POPULATIONS
-------------------------------------------
   0 C :    0.020160   -0.448253
   1 C :    0.020138    0.448270
   2 C :   -0.086115   -0.014563
   3 C :   -0.010401    0.016724
   4 C :   -0.062571   -0.021148
   5 C :   -0.034533    0.007730
   6 C :    0.033036   -0.006552
   7 C :    0.019315    0.006349
   8 C :   -0.048720   -0.007205
   9 C :    0.024359    0.007021
  10 C :    0.024422   -0.007018
  11 C :   -0.048713    0.007207
  12 C :    0.019189   -0.006352
  13 C :    0.033206    0.006552
  14 C :   -0.034616   -0.007730
  15 C :   -0.062581    0.021146
  16 C :   -0.010377   -0.016732
  17 C :   -0.086116    0.014567
  18 C :    0.036493   -0.000002
  19 C :   -0.022976    0.001640
  20 C :   -0.039178   -0.008002
  21 C :    0.016245   -0.000006
  22 H :    0.093107    0.000046
  23 H :    0.088152   -0.000268
  24 H :    0.088147    0.000268
  25 H :    0.093084   -0.000047
  26 C :   -0.039176    0.008000
  27 C :   -0.022982   -0.001641

  Mayer bond orders larger than 0.100000
B(  0-C ,  1-C ) :   1.3414 B(  0-C ,  4-C ) :  -0.1969 B(  0-C ,  5-C ) :   0.3450
B(  0-C ,  6-C ) :   0.1106 B(  0-C ,  7-C ) :  -0.2477 B(  0-C , 11-C ) :   0.1010
B(  0-C , 12-C ) :   0.1984 B(  0-C , 14-C ) :  -0.4991 B(  0-C , 15-C ) :   0.3396
B(  0-C , 17-C ) :   0.1158 B(  0-C , 21-C ) :   0.5735 B(  1-C ,  2-C ) :   0.1511
B(  1-C ,  4-C ) :   0.3684 B(  1-C ,  5-C ) :  -0.5345 B(  1-C ,  7-C ) :   0.2063
B(  1-C , 12-C ) :  -0.2443 B(  1-C , 13-C ) :   0.1203 B(  1-C , 14-C ) :   0.3222
B(  1-C , 15-C ) :  -0.1861 B(  1-C , 21-C ) :   0.5842 B(  2-C ,  3-C ) :   0.7554
B(  2-C ,  4-C ) :  -0.2720 B(  2-C ,  5-C ) :   1.3169 B(  2-C ,  6-C ) :  -0.1361
B(  2-C ,  7-C ) :  -0.4109 B(  2-C ,  8-C ) :  -0.1301 B(  2-C , 12-C ) :   0.5831
B(  2-C , 13-C ) :  -0.1946 B(  2-C , 14-C ) :  -0.3872 B(  2-C , 15-C ) :   0.2362
B(  2-C , 16-C ) :  -0.1322 B(  2-C , 20-C ) :   0.1184 B(  2-C , 21-C ) :   1.2191
B(  2-C , 26-C ) :  -0.1839 B(  3-C ,  4-C ) :   1.6089 B(  3-C ,  5-C ) :  -1.0377
B(  3-C ,  6-C ) :   0.3937 B(  3-C , 12-C ) :  -0.3431 B(  3-C , 13-C ) :   0.2788
B(  3-C , 14-C ) :   0.2019 B(  3-C , 15-C ) :  -0.1499 B(  3-C , 17-C ) :  -0.1305
B(  3-C , 18-C ) :   0.1091 B(  3-C , 19-C ) :   0.1012 B(  3-C , 20-C ) :   0.1512
B(  3-C , 21-C ) :   0.7431 B(  3-C , 22-H ) :   0.9389 B(  3-C , 27-C ) :   0.1048
B(  4-C ,  5-C ) :  -0.1005 B(  4-C , 12-C ) :  -0.1304 B(  4-C , 16-C ) :  -0.1532
B(  4-C , 17-C ) :   0.2256 B(  4-C , 19-C ) :   0.2474 B(  4-C , 20-C ) :   0.3612
B(  4-C , 23-H ) :   1.0723 B(  5-C ,  6-C ) :   0.4897 B(  5-C ,  8-C ) :   0.4047
B(  5-C , 11-C ) :  -0.1078 B(  5-C , 14-C ) :   0.4633 B(  5-C , 16-C ) :   0.2227
B(  5-C , 17-C ) :  -0.4039 B(  5-C , 19-C ) :  -0.1029 B(  5-C , 20-C ) :   1.9538
B(  5-C , 21-C ) :   0.2026 B(  5-C , 23-H ) :  -0.4513 B(  5-C , 26-C ) :   0.1548
B(  5-C , 27-C ) :  -0.2711 B(  6-C ,  7-C ) :   1.0959 B(  6-C ,  8-C ) :  -0.2459
B(  6-C ,  9-C ) :  -0.1912 B(  6-C , 16-C ) :   0.2566 B(  6-C , 17-C ) :  -0.1889
B(  6-C , 18-C ) :  -0.1108 B(  6-C , 19-C ) :   0.7005 B(  6-C , 20-C ) :   0.1874
B(  6-C , 21-C ) :  -0.1884 B(  6-C , 27-C ) :   0.1652 B(  7-C ,  8-C ) :   0.9552
B(  7-C ,  9-C ) :  -0.7961 B(  7-C , 15-C ) :  -0.1324 B(  7-C , 16-C ) :  -0.3208
B(  7-C , 17-C ) :   0.5906 B(  7-C , 18-C ) :   0.1343 B(  7-C , 20-C ) :   0.2757
B(  7-C , 27-C ) :  -0.1416 B(  8-C ,  9-C ) :   1.0580 B(  8-C , 11-C ) :   0.3616
B(  8-C , 14-C ) :  -0.1073 B(  8-C , 18-C ) :  -0.1314 B(  8-C , 19-C ) :   1.2904
B(  8-C , 20-C ) :  -0.2144 B(  9-C , 10-C ) :   1.9608 B(  9-C , 27-C ) :   0.1587
B( 10-C , 11-C ) :   1.0623 B( 10-C , 12-C ) :  -0.7851 B( 10-C , 13-C ) :  -0.1926
B( 10-C , 19-C ) :   0.1564 B( 11-C , 12-C ) :   0.9442 B( 11-C , 13-C ) :  -0.2553
B( 11-C , 14-C ) :   0.3841 B( 11-C , 17-C ) :  -0.1253 B( 11-C , 18-C ) :  -0.1271
B( 11-C , 26-C ) :  -0.2224 B( 11-C , 27-C ) :   1.2920 B( 12-C , 13-C ) :   1.0788
B( 12-C , 14-C ) :   0.1107 B( 12-C , 17-C ) :  -0.4003 B( 12-C , 18-C ) :   0.1242
B( 12-C , 19-C ) :  -0.1460 B( 12-C , 26-C ) :   0.2801 B( 13-C , 14-C ) :   0.5957
B( 13-C , 16-C ) :   0.3555 B( 13-C , 17-C ) :  -0.1451 B( 13-C , 18-C ) :  -0.1019
B( 13-C , 19-C ) :   0.1672 B( 13-C , 21-C ) :  -0.1942 B( 13-C , 26-C ) :   0.2025
B( 13-C , 27-C ) :   0.6963 B( 14-C , 16-C ) :  -0.9387 B( 14-C , 17-C ) :   1.2591
B( 14-C , 19-C ) :  -0.2670 B( 14-C , 20-C ) :   0.1450 B( 14-C , 21-C ) :   0.2096
B( 14-C , 24-H ) :  -0.4324 B( 14-C , 26-C ) :   1.9415 B( 15-C , 16-C ) :   1.5490
B( 15-C , 17-C ) :  -0.2549 B( 15-C , 24-H ) :   1.0775 B( 15-C , 26-C ) :   0.3691
B( 15-C , 27-C ) :   0.2405 B( 16-C , 17-C ) :   0.8129 B( 16-C , 18-C ) :   0.1148
B( 16-C , 21-C ) :   0.6841 B( 16-C , 25-H ) :   0.9405 B( 16-C , 26-C ) :   0.1487
B( 17-C , 20-C ) :  -0.1748 B( 17-C , 21-C ) :   1.2552 B( 17-C , 26-C ) :   0.1340
B( 18-C , 19-C ) :   0.3015 B( 18-C , 20-C ) :   1.4404 B( 18-C , 21-C ) :   1.2263
B( 18-C , 26-C ) :   1.4501 B( 18-C , 27-C ) :   0.3048 B( 19-C , 20-C ) :   0.9679
B( 19-C , 26-C ) :   0.1140 B( 19-C , 27-C ) :   1.5084 B( 20-C , 21-C ) :   0.2813
B( 20-C , 26-C ) :   0.1706 B( 20-C , 27-C ) :   0.1166 B( 21-C , 22-H ) :   0.1130
B( 21-C , 25-H ) :   0.1160 B( 21-C , 26-C ) :   0.2869 B( 24-H , 26-C ) :   0.1014
B( 26-C , 27-C ) :   0.9676

-----------------------------------------------------------------------------
         ABSORPTION SPECTRUM VIA TRANSITION ELECTRIC DIPOLE MOMENTS
-----------------------------------------------------------------------------
State   Energy    Wavelength  fosc         T2        TX        TY        TZ
        (cm-1)      (nm)                 (au**2)    (au)      (au)      (au)
-----------------------------------------------------------------------------
   1   10624.0    941.3   0.000000001   0.00000  -0.00000   0.00001  -0.00014
   2   11807.5    846.9   0.000468378   0.01306  -0.00001   0.00012  -0.11428
   3   12187.3    820.5   0.000017628   0.00048  -0.01111   0.01878   0.00002
   4   14700.7    680.2   0.004818859   0.10791   0.28280   0.16715   0.00017
   5   15985.8    625.6   0.000019933   0.00041  -0.01035   0.01742   0.00002
   6   16384.1    610.3   0.000000000   0.00000  -0.00000   0.00000  -0.00001
   7   16906.1    591.5   0.000062402   0.00122   0.00000   0.00004  -0.03486
   8   17324.6    577.2   0.000161972   0.00308   0.00000  -0.00006   0.05548
   9   17527.3    570.5   0.000721093   0.01354  -0.05923   0.10018   0.00011
  10   18361.8    544.6   0.000003618   0.00006  -0.00000  -0.00001   0.00805
  11   18857.8    530.3   0.000000001   0.00000  -0.00000   0.00000  -0.00010
  12   18921.0    528.5   0.000000120   0.00000   0.00074  -0.00125  -0.00000
  13   19350.4    516.8   0.000000043   0.00000   0.00073   0.00044   0.00000
  14   19744.6    506.5   0.000000000   0.00000   0.00000  -0.00001  -0.00001
  15   19760.2    506.1   0.000000030   0.00000  -0.00037   0.00060   0.00000
  16   20471.3    488.5   0.000052479   0.00084  -0.02501  -0.01478  -0.00001
  17   20673.6    483.7   0.000087553   0.00139   0.03213   0.01902   0.00002
  18   21752.1    459.7   0.000000001   0.00000  -0.00000  -0.00000  -0.00013
  19   21778.3    459.2   0.000006302   0.00010  -0.00000  -0.00001   0.00976
  20   22447.5    445.5   0.000413261   0.00606   0.00002   0.00008  -0.07785
  21   22754.1    439.5   0.000000000   0.00000  -0.00000   0.00001  -0.00006
  22   22774.8    439.1   0.000005066   0.00007   0.00430  -0.00740  -0.00001
  23   23620.5    423.4   0.006036944   0.08414  -0.14442   0.25156   0.00025
  24   23708.9    421.8   0.000000604   0.00001   0.00000   0.00001  -0.00290
  25   23847.5    419.3   0.129181388   1.78334  -1.14939  -0.67987  -0.00070
  26   23919.3    418.1   0.000000002   0.00000   0.00009   0.00008   0.00010
  27   24618.8    406.2   0.000015477   0.00021  -0.01219  -0.00765  -0.00001
  28   24858.7    402.3   0.000000280   0.00000  -0.00001  -0.00001   0.00193
  29   25412.5    393.5   0.000424122   0.00549  -0.06374  -0.03784  -0.00004
  30   25518.2    391.9   0.000000000   0.00000   0.00000  -0.00000  -0.00005
  31   25612.9    390.4   0.000022582   0.00029   0.00000   0.00002  -0.01704
  32   26159.8    382.3   0.000000000   0.00000  -0.00000   0.00000  -0.00002
  33   26443.0    378.2   0.000000000   0.00000   0.00001  -0.00001  -0.00003
  34   26646.1    375.3   0.000131704   0.00163  -0.03415  -0.02147  -0.00002
  35   26715.1    374.3   0.044109292   0.54356   0.37570  -0.63436  -0.00059
  36   26776.0    373.5   0.000286729   0.00353   0.00025  -0.00036  -0.05937
  37   26860.5    372.3   0.000363066   0.00445   0.03390  -0.05745  -0.00006
  38   27705.5    360.9   0.001565324   0.01860  -0.06949   0.11735   0.00012
  39   27961.2    357.6   0.000005156   0.00006  -0.00001   0.00001   0.00779
  40   28914.5    345.8   0.000073979   0.00084  -0.00000  -0.00003   0.02902
  41   29006.2    344.8   0.000000000   0.00000   0.00000  -0.00000   0.00001
  42   29243.4    342.0   0.000000000   0.00000  -0.00000  -0.00001   0.00001
  43   29598.1    337.9   0.000000001   0.00000   0.00000   0.00000  -0.00012
  44   30099.0    332.2   0.000056526   0.00062  -0.01263   0.02142   0.00002
  45   30383.4    329.1   0.000203709   0.00221   0.00003   0.00020  -0.04698
  46   30405.5    328.9   0.002998583   0.03247  -0.15396  -0.09361  -0.00012
  47   30441.5    328.5   0.000000000   0.00000   0.00000   0.00003  -0.00001
  48   30513.7    327.7   0.053222086   0.57421  -0.38596   0.65211   0.00067
  49   30774.6    324.9   0.004697860   0.05026   0.19331   0.11352   0.00012
  50   31195.0    320.6   0.000313217   0.00331   0.00000  -0.00004   0.05749
  51   31364.0    318.8   0.000000001   0.00000  -0.00000   0.00000  -0.00010
  52   31801.0    314.5   0.006002509   0.06214   0.21451   0.12698   0.00012
  53   32037.0    312.1   0.000106073   0.00109  -0.00002   0.00004  -0.03302
  54   32280.2    309.8   0.000000001   0.00000  -0.00000  -0.00000   0.00010
  55   32327.5    309.3   0.000038395   0.00039   0.00000  -0.00002   0.01977
  56   32775.6    305.1   0.000774728   0.00778   0.00002  -0.00007   0.08821
  57   32937.4    303.6   0.000079251   0.00079  -0.01252   0.02521   0.00002
  58   32948.0    303.5   0.000209528   0.00209  -0.02452   0.03863   0.00004
  59   32963.0    303.4   0.002557987   0.02555   0.13750   0.08149   0.00007
  60   33095.3    302.2   0.000002354   0.00002  -0.00000   0.00001  -0.00484
  61   33142.4    301.7   0.000000000   0.00000  -0.00001  -0.00002   0.00002
  62   33316.3    300.2   0.000046592   0.00046   0.01856   0.01077   0.00001
  63   33332.3    300.0   0.000000000   0.00000  -0.00001   0.00000  -0.00005
  64   34223.7    292.2   0.007329843   0.07051   0.22950   0.13356   0.00014
  65   34234.9    292.1   0.000000001   0.00000  -0.00010  -0.00006  -0.00001
  66   34377.5    290.9   0.001000497   0.00958   0.08455   0.04932   0.00005
  67   34465.2    290.1   0.013647751   0.13036   0.18380  -0.31077  -0.00032
  68   34502.0    289.8   0.058466755   0.55788   0.38115  -0.64234  -0.00065
  69   34551.2    289.4   0.000480511   0.00458  -0.05727  -0.03603  -0.00003
  70   34621.7    288.8   0.000041058   0.00039   0.00001   0.00003  -0.01976
  71   34707.1    288.1   0.010535887   0.09994   0.27099   0.16279   0.00017
  72   34872.7    286.8   0.001054599   0.00996  -0.00003  -0.00012   0.09978
  73   34944.5    286.2   0.000000000   0.00000  -0.00000   0.00000   0.00003
  74   35038.4    285.4   0.003314578   0.03114  -0.15144  -0.09060  -0.00010
  75   35111.3    284.8   0.000000000   0.00000   0.00001   0.00000  -0.00005
  76   35208.6    284.0   0.000056235   0.00053   0.01168  -0.01973  -0.00002
  77   35278.2    283.5   0.000000028   0.00000  -0.00046  -0.00021   0.00000
  78   35377.1    282.7   0.000000006   0.00000   0.00000   0.00000  -0.00025
  79   35391.2    282.6   0.000713543   0.00664   0.00002  -0.00015   0.08147
  80   35697.8    280.1   0.000000000   0.00000   0.00000  -0.00000   0.00002
  81   35778.6    279.5   0.018301403   0.16840   0.20896  -0.35318  -0.00037
  82   35815.6    279.2   0.000026924   0.00025  -0.00002   0.00007  -0.01573
  83   35872.8    278.8   0.000031092   0.00029  -0.01453  -0.00861  -0.00001
  84   35939.2    278.2   0.000003094   0.00003   0.00503   0.00174   0.00001
  85   35942.2    278.2   0.000001880   0.00002  -0.00090   0.00405   0.00001
  86   36000.0    277.8   0.000492584   0.00450   0.00001  -0.00008   0.06712
  87   36154.4    276.6   0.000004047   0.00004   0.00003  -0.00004  -0.00607
  88   36178.1    276.4   0.000144965   0.00132   0.01853  -0.03124  -0.00002
  89   36250.7    275.9   0.000549037   0.00499  -0.03609   0.06069   0.00006
  90   36539.1    273.7   0.000318461   0.00287   0.04609   0.02730   0.00003
  91   36717.3    272.4   0.000283976   0.00255  -0.02410   0.04433   0.00004
  92   36731.5    272.2   0.000000007   0.00000   0.00003  -0.00002   0.00025
  93   36736.1    272.2   0.002691459   0.02412   0.13385   0.07877   0.00008
  94   37042.9    270.0   0.000033224   0.00030  -0.00000  -0.00002   0.01718
  95   37187.9    268.9   0.001076918   0.00953   0.00002   0.00013  -0.09764
  96   37197.9    268.8   0.000625684   0.00554   0.03741  -0.06433  -0.00010
  97   37315.5    268.0   0.019163816   0.16907   0.35601   0.20573   0.00022
  98   37324.3    267.9   0.001933871   0.01706   0.05745  -0.11729  -0.00011
  99   37375.5    267.6   0.000000002   0.00000   0.00010   0.00002   0.00010
 100   37399.6    267.4   0.005703458   0.05020   0.11229  -0.19390  -0.00019
 101   37659.6    265.5   0.000000000   0.00000   0.00001  -0.00000   0.00004
 102   37816.1    264.4   0.000006533   0.00006   0.00000  -0.00002   0.00754
 103   37967.6    263.4   0.030093160   0.26093  -0.26040   0.43946   0.00044
 104   38270.4    261.3   0.000000002   0.00000   0.00003   0.00002  -0.00014
 105   38318.5    261.0   0.000000003   0.00000  -0.00008  -0.00006   0.00011
 106   38378.1    260.6   0.114729883   0.98417  -0.85382  -0.50513  -0.00052
 107   38479.8    259.9   0.000026888   0.00023   0.00015   0.00009  -0.01517
 108   38671.1    258.6   0.031485916   0.26804  -0.44546  -0.26383  -0.00027
 109   38796.6    257.8   0.000004448   0.00004   0.00001   0.00001  -0.00614
 110   38891.6    257.1   0.000047257   0.00040  -0.00001  -0.00001  -0.02000
 111   38932.5    256.9   0.000000000   0.00000   0.00002  -0.00001  -0.00006
 112   38958.8    256.7   0.005281499   0.04463  -0.10603   0.18272   0.00018
 113   38991.8    256.5   0.000760205   0.00642   0.06828   0.04190   0.00004
 114   39000.7    256.4   0.001766862   0.01491   0.06468  -0.10359  -0.00010
 115   39273.7    254.6   0.000000001   0.00000   0.00000   0.00000  -0.00011
 116   39387.2    253.9   0.001013286   0.00847   0.07919   0.04688   0.00005
 117   39401.1    253.8   0.000000001   0.00000  -0.00005  -0.00003  -0.00005
 118   39500.5    253.2   0.001270065   0.01059   0.08831   0.05279   0.00005
 119   39738.1    251.6   0.000015056   0.00012  -0.00000   0.00001  -0.01117
 120   40107.1    249.3   0.000042089   0.00035  -0.00005   0.00006  -0.01859
 121   40206.2    248.7   0.044822639   0.36701   0.30455  -0.52370  -0.00052
 122   40260.8    248.4   0.001785377   0.01460   0.06141  -0.10406  -0.00010
 123   40352.6    247.8   0.008893829   0.07256  -0.23664  -0.12869  -0.00013
 124   40563.4    246.5   0.000000001   0.00000   0.00002   0.00001   0.00010
 125   40625.9    246.1   0.000000960   0.00001   0.00275  -0.00047  -0.00000
 126   40644.9    246.0   0.000018907   0.00015   0.00600  -0.01082  -0.00001
 127   40818.2    245.0   0.000000000   0.00000   0.00000  -0.00001  -0.00000
 128   41122.5    243.2   0.000000003   0.00000  -0.00000  -0.00000  -0.00016
 129   41209.6    242.7   0.000008931   0.00007   0.00000  -0.00001   0.00845
 130   41262.5    242.4   0.000025454   0.00020  -0.00000  -0.00002   0.01425
 131   41351.0    241.8   0.000000009   0.00000   0.00001  -0.00002   0.00026
 132   41432.0    241.4   0.000529514   0.00421  -0.00006   0.00008   0.06486
 133   41553.0    240.7   0.000166495   0.00132   0.03076   0.01931   0.00001
 134   41642.1    240.1   0.002584701   0.02043  -0.00015   0.00012   0.14295
 135   41684.8    239.9   0.000000198   0.00000  -0.00114  -0.00051   0.00000
 136   41730.3    239.6   0.233271490   1.84029   0.68991  -1.16804  -0.00114
 137   42055.9    237.8   0.039136693   0.30636  -0.28154   0.47654   0.00047
 138   42122.0    237.4   0.000107311   0.00084   0.00003  -0.00008   0.02896
 139   42235.6    236.8   0.000000028   0.00000  -0.00000  -0.00003   0.00047
 140   42419.7    235.7   0.000108857   0.00084   0.02463   0.01544   0.00001
 141   42467.3    235.5   0.004493789   0.03484  -0.15928  -0.09729  -0.00009
 142   42532.2    235.1   0.004434683   0.03433  -0.09514   0.15898   0.00016
 143   42716.4    234.1   0.014309577   0.11028  -0.16833   0.28626   0.00029
 144   43077.0    232.1   0.174257415   1.33175   0.99517   0.58428   0.00059
 145   43145.7    231.8   0.000000023   0.00000  -0.00029  -0.00014  -0.00026
 146   43391.4    230.5   0.000000000   0.00000   0.00000   0.00000   0.00004
 147   43513.8    229.8   0.004117178   0.03115  -0.00001  -0.00019   0.17649
 148   43986.0    227.3   0.001652356   0.01237   0.05671  -0.09566  -0.00010
 149   44459.4    224.9   0.046168762   0.34187  -0.50218  -0.29947  -0.00030
 150   44587.1    224.3   0.125913549   0.92969  -0.49075   0.82998   0.00084
 151   44983.2    222.3   0.000001119   0.00001   0.00001  -0.00002  -0.00286
 152   45152.3    221.5   0.000000021   0.00000   0.00004  -0.00004   0.00039
 153   45212.0    221.2   0.000000005   0.00000   0.00009  -0.00016  -0.00001
 154   45244.6    221.0   0.000347411   0.00253  -0.00750   0.04971   0.00005
 155   45246.5    221.0   0.916798405   6.67059  -1.31580   2.22244   0.00224
 156   45344.3    220.5   0.000203542   0.00148   0.00030  -0.00054   0.03844
 157   45583.1    219.4   0.000022162   0.00016   0.01040   0.00720   0.00001
 158   45937.6    217.7   0.000183755   0.00132  -0.03107  -0.01874  -0.00002
 159   46242.0    216.3   0.000006674   0.00005   0.00000  -0.00001   0.00689
 160   46380.1    215.6   0.001033293   0.00733   0.04357  -0.07373  -0.00008
 161   46383.7    215.6   0.000000010   0.00000   0.00014  -0.00022   0.00006
 162   46414.4    215.5   0.000013454   0.00010   0.00004  -0.00009   0.00977
 163   46654.2    214.3   0.000000000   0.00000  -0.00000  -0.00000   0.00000
 164   46654.2    214.3   0.000000000   0.00000  -0.00000  -0.00000   0.00000
 165   46654.2    214.3   0.000000000   0.00000   0.00000  -0.00000  -0.00000
 166   46654.2    214.3   0.000000000   0.00000   0.00000   0.00000  -0.00000
 167   46654.2    214.3   0.000000000   0.00000  -0.00000   0.00000   0.00000
 168   46654.2    214.3   0.000000000   0.00000  -0.00000  -0.00000  -0.00000
 169   46654.2    214.3   0.000000000   0.00000  -0.00000   0.00000  -0.00000
 170   46654.2    214.3   0.000000000   0.00000   0.00000   0.00000   0.00000
 171   46654.2    214.3   0.000000000   0.00000  -0.00000   0.00000   0.00000
 172   46654.2    214.3   0.000000000   0.00000  -0.00000   0.00000   0.00000
 173   46654.3    214.3   0.000000000   0.00000   0.00000  -0.00000   0.00000
 174   46654.3    214.3   0.000000000   0.00000   0.00000  -0.00000  -0.00000
 175   46654.3    214.3   0.000000000   0.00000   0.00000   0.00000  -0.00000
 176   46654.3    214.3   0.000000000   0.00000  -0.00000   0.00000   0.00000
 177   46654.3    214.3   0.000000000   0.00000   0.00000  -0.00000   0.00000
 178   46654.3    214.3   0.000000000   0.00000   0.00000  -0.00000   0.00000
 179   46654.3    214.3   0.000000000   0.00000   0.00000   0.00000   0.00000
 180   46654.3    214.3   0.000000000   0.00000   0.00000  -0.00000   0.00000
 181   46654.3    214.3   0.000000000   0.00000   0.00000   0.00000   0.00000
 182   46654.3    214.3   0.000000000   0.00000  -0.00000  -0.00000   0.00000
 183   46950.0    213.0   0.237363068   1.66438  -0.65482   1.11157   0.00112
 184   46958.9    213.0   0.000000006   0.00000  -0.00010   0.00018   0.00004
 185   47116.5    212.2   0.011878852   0.08300  -0.25018  -0.14286  -0.00014
 186   47127.0    212.2   0.000003869   0.00003   0.00000  -0.00000   0.00520
 187   47797.8    209.2   0.001808647   0.01246   0.00010   0.00004  -0.11161
 188   47935.4    208.6   0.000009972   0.00007  -0.00422   0.00711   0.00027
 189   47938.1    208.6   0.725715223   4.98380   1.13747  -1.92092  -0.00193
 190   48036.2    208.2   0.000000039   0.00000  -0.00028   0.00043   0.00006
 191   48094.9    207.9   0.000000001   0.00000  -0.00005   0.00007   0.00002
 192   48200.8    207.5   0.000046916   0.00032   0.00000   0.00002  -0.01790
 193   48348.4    206.8   0.000000007   0.00000   0.00009   0.00009  -0.00017
 194   48404.9    206.6   0.001088035   0.00740  -0.07403  -0.04381  -0.00004
 195   48668.3    205.5   0.268772396   1.81809  -0.68176   1.16331   0.00118
 196   48707.8    205.3   0.000000546   0.00000  -0.00031   0.00043   0.00185

Dispersion correction           -0.092552737
FINAL SINGLE POINT ENERGY      -916.120042712937

DIPOLE MOMENT
-------------
                                X             Y             Z
Electronic contribution:     -4.00750       6.77127       0.00683
Nuclear contribution   :      4.42092      -7.46871      -0.00754
                        -----------------------------------------
Total Dipole Moment    :      0.41342      -0.69744      -0.00071
                        -----------------------------------------
Magnitude (a.u.)       :      0.81077
Magnitude (Debye)      :      2.06080

Rotational constants in cm-1:     0.013750     0.010117     0.005829
Rotational constants in MHz :   412.203459   303.307157   174.734318

                             ****ORCA TERMINATED NORMALLY****
TOTAL RUN TIME: 0 days 8 hours 45 minutes 1 seconds 528 msec
