                         Program Version 5.0.4 -  RELEASE  -
|  1> !M062X DEF2-TZVP OPT FREQ
|  2>
|  3> %maxcore 3000
|  4> %pal
|  5> nprocs 5
|  6> end
|  7>
|  8> %freq
|  9>   TEMP 298.15,10,20,50,100,6000,8000,10000
| 10>   end
| 11>
| 12> * xyz 0 2
| 13>   C   2.45025911436908     -2.79090177790463     -0.00000982964919
| 14>   C   1.27956958510907     -3.48660258649203     -0.00004173389427
| 15>   C   0.03020658595300     -2.81550364249800     -0.00011862088441
| 16>   C   -1.20107819729747     -3.52526706874898     -0.00015240048714
| 17>   C   -2.38858789470557     -2.86502728739536     -0.00022482001470
| 18>   C   -2.44105509445554     -1.44398386157020     -0.00026954248287
| 19>   C   -3.67663052786843     -0.75322560258363     -0.00034505741295
| 20>   C   -3.72620674307354      0.61012331224561     -0.00038725318909
| 21>   C   -2.53312282987023      1.35934632798929     -0.00035605272073
| 22>   C   -2.34753337498203      2.75391254959518     -0.00038934949593
| 23>   C   -1.29670155377861      3.37861761727772     -0.00036267557578
| 24>   C   0.01685582404701      2.87468391601134     -0.00029170556996
| 25>   C   1.24552120765708      3.56426857632077     -0.00025954932536
| 26>   C   2.41910897755889      2.86883891663109     -0.00018686269248
| 27>   C   2.43513201634147      1.45348005475609     -0.00014272162428
| 28>   C   3.65821453508405      0.72792377916697     -0.00006423037791
| 29>   C   3.67026889114169     -0.63084151991298     -0.00002152358643
| 30>   C   2.45819623267264     -1.37288294365309     -0.00005292192897
| 31>   C   1.23136494255913     -0.68205099072942     -0.00012978920390
| 32>   C   1.21552338299244      0.74291881045426     -0.00017515439035
| 33>   C   -0.02157562885261      1.44516062565708     -0.00024971485033
| 34>   C   -1.25909575897147      0.70970393432854     -0.00028207962759
| 35>   C   -1.23391475435778     -0.71245727770562     -0.00023706797792
| 36>   C   0.01012694395947     -1.40778803226763     -0.00016249723364
| 37>   H   3.39883583341171     -3.31417365841427      0.00004947598548
| 38>   H   1.28571717640132     -4.56990075715492     -0.00000797167050
| 39>   H   -1.17451584360617     -4.60820675048880     -0.00011872516592
| 40>   H   -3.32207671532680     -3.41465497856564     -0.00025023814909
| 41>   H   -4.59253679048289     -1.33153116975716     -0.00036952032608
| 42>   H   -4.67219071827069      1.13379875695350     -0.00044562775965
| 43>   H   1.23798091724791      4.64550021059141     -0.00029268019975
| 44>   H   4.58720556626417      1.28510572107642     -0.00003933255885
| 45>   H   4.60871019346374     -1.17195606478706      0.00003963734661
| 46>   *
| 47>
| 48>                          ****END OF INPUT****
 Total Charge           Charge          ....    0
 Multiplicity           Mult            ....    2
 Number of Electrons    NEL             ....  153
FINAL SINGLE POINT ENERGY      -919.831162126272
FINAL SINGLE POINT ENERGY      -919.832855829528
FINAL SINGLE POINT ENERGY      -919.833495935910
FINAL SINGLE POINT ENERGY      -919.833508726788
                    ***********************HURRAY********************

CARTESIAN COORDINATES (ANGSTROEM)
---------------------------------
  C      2.451372   -2.790545   -0.000009
  C      1.279629   -3.485335   -0.000039
  C      0.030726   -2.814784   -0.000119
  C     -1.200048   -3.524004   -0.000151
  C     -2.387819   -2.863138   -0.000230
  C     -2.439706   -1.442267   -0.000271
  C     -3.676302   -0.753946   -0.000347
  C     -3.726528    0.609458   -0.000388
  C     -2.533123    1.358682   -0.000355
  C     -2.348433    2.752168   -0.000391
  C     -1.301750    3.384347   -0.000363
  C      0.010666    2.881936   -0.000289
  C      1.242714    3.581606   -0.000258
  C      2.365318    2.837784   -0.000188
  C      2.445661    1.442766   -0.000140
  C      3.671540    0.724317   -0.000068
  C      3.675442   -0.634975   -0.000022
  C      2.460419   -1.372702   -0.000049
  C      1.232525   -0.683275   -0.000129
  C      1.215232    0.741044   -0.000171
  C     -0.020387    1.449513   -0.000248
  C     -1.257475    0.712154   -0.000276
  C     -1.232374   -0.710816   -0.000235
  C      0.010566   -1.407041   -0.000159
  H      3.399066   -3.315561    0.000054
  H      1.285663   -4.568796   -0.000005
  H     -1.174223   -4.607082   -0.000120
  H     -3.321119   -3.413348   -0.000256
  H     -4.591207   -1.334123   -0.000370
  H     -4.672109    1.134210   -0.000447
  H      1.250106    4.663579   -0.000294
  H      4.596880    1.285643   -0.000048
  H      4.611052   -1.181044    0.000034

 Multiplicity           Mult            ....    2
 Number of Electrons    NEL             ....  153
 Basis Dimension        Dim             ....  798

ORBITAL ENERGIES
----------------
                 SPIN UP ORBITALS
  NO   OCC          E(Eh)            E(eV)
   0   1.0000     -10.591680      -288.2143
   1   1.0000     -10.585509      -288.0463
   2   1.0000     -10.579382      -287.8796
   3   1.0000     -10.573081      -287.7082
   4   1.0000     -10.572484      -287.6919
   5   1.0000     -10.571446      -287.6637
   6   1.0000     -10.568871      -287.5936
   7   1.0000     -10.566637      -287.5328
   8   1.0000     -10.564880      -287.4850
   9   1.0000     -10.563868      -287.4575
  10   1.0000     -10.563565      -287.4492
  11   1.0000     -10.563452      -287.4461
  12   1.0000     -10.562450      -287.4189
  13   1.0000     -10.559613      -287.3417
  14   1.0000     -10.556456      -287.2558
  15   1.0000     -10.556099      -287.2460
  16   1.0000     -10.555520      -287.2303
  17   1.0000     -10.554732      -287.2089
  18   1.0000     -10.554330      -287.1979
  19   1.0000     -10.554255      -287.1959
  20   1.0000     -10.553746      -287.1820
  21   1.0000     -10.553247      -287.1684
  22   1.0000     -10.552249      -287.1413
  23   1.0000     -10.549419      -287.0643
  24   1.0000      -1.030314       -28.0363
  25   1.0000      -0.992567       -27.0091
  26   1.0000      -0.991294       -26.9745
  27   1.0000      -0.941643       -25.6234
  28   1.0000      -0.940136       -25.5824
  29   1.0000      -0.918631       -24.9972
  30   1.0000      -0.890173       -24.2228
  31   1.0000      -0.870539       -23.6886
  32   1.0000      -0.852926       -23.2093
  33   1.0000      -0.845312       -23.0021
  34   1.0000      -0.818713       -22.2783
  35   1.0000      -0.816782       -22.2258
  36   1.0000      -0.734754       -19.9937
  37   1.0000      -0.729633       -19.8543
  38   1.0000      -0.726370       -19.7655
  39   1.0000      -0.719354       -19.5746
  40   1.0000      -0.716243       -19.4900
  41   1.0000      -0.650840       -17.7103
  42   1.0000      -0.635038       -17.2802
  43   1.0000      -0.628160       -17.0931
  44   1.0000      -0.616330       -16.7712
  45   1.0000      -0.603326       -16.4173
  46   1.0000      -0.600497       -16.3404
  47   1.0000      -0.559604       -15.2276
  48   1.0000      -0.550469       -14.9790
  49   1.0000      -0.543872       -14.7995
  50   1.0000      -0.530572       -14.4376
  51   1.0000      -0.526899       -14.3376
  52   1.0000      -0.519360       -14.1325
  53   1.0000      -0.515275       -14.0213
  54   1.0000      -0.503553       -13.7024
  55   1.0000      -0.490663       -13.3516
  56   1.0000      -0.486759       -13.2454
  57   1.0000      -0.482205       -13.1215
  58   1.0000      -0.474531       -12.9126
  59   1.0000      -0.473067       -12.8728
  60   1.0000      -0.470064       -12.7911
  61   1.0000      -0.446933       -12.1617
  62   1.0000      -0.439331       -11.9548
  63   1.0000      -0.432503       -11.7690
  64   1.0000      -0.414869       -11.2892
  65   1.0000      -0.410757       -11.1773
  66   1.0000      -0.398553       -10.8452
  67   1.0000      -0.392175       -10.6716
  68   1.0000      -0.392082       -10.6691
  69   1.0000      -0.345669        -9.4061
  70   1.0000      -0.340121        -9.2552
  71   1.0000      -0.334898        -9.1130
  72   1.0000      -0.319023        -8.6811
  73   1.0000      -0.316067        -8.6006
  74   1.0000      -0.308553        -8.3961
  75   1.0000      -0.262203        -7.1349
  76   1.0000      -0.261382        -7.1126
  77   0.0000      -0.048305        -1.3145
  78   0.0000      -0.040988        -1.1153
  79   0.0000      -0.038855        -1.0573
  80   0.0000      -0.001589        -0.0432
  81   0.0000       0.003327         0.0905

                 SPIN DOWN ORBITALS
  NO   OCC          E(Eh)            E(eV)
   0   1.0000     -10.590693      -288.1874
   1   1.0000     -10.585620      -288.0494
   2   1.0000     -10.573153      -287.7101
   3   1.0000     -10.572550      -287.6937
   4   1.0000     -10.570793      -287.6459
   5   1.0000     -10.569650      -287.6148
   6   1.0000     -10.568638      -287.5873
   7   1.0000     -10.566672      -287.5338
   8   1.0000     -10.564810      -287.4831
   9   1.0000     -10.563811      -287.4559
  10   1.0000     -10.563506      -287.4476
  11   1.0000     -10.563415      -287.4451
  12   1.0000     -10.562476      -287.4196
  13   1.0000     -10.559873      -287.3487
  14   1.0000     -10.556472      -287.2562
  15   1.0000     -10.555738      -287.2362
  16   1.0000     -10.555527      -287.2305
  17   1.0000     -10.554725      -287.2087
  18   1.0000     -10.554369      -287.1990
  19   1.0000     -10.554265      -287.1962
  20   1.0000     -10.553757      -287.1823
  21   1.0000     -10.553238      -287.1682
  22   1.0000     -10.552156      -287.1388
  23   1.0000     -10.549348      -287.0623
  24   1.0000      -1.029015       -28.0009
  25   1.0000      -0.991328       -26.9754
  26   1.0000      -0.988700       -26.9039
  27   1.0000      -0.939409       -25.5626
  28   1.0000      -0.937366       -25.5070
  29   1.0000      -0.916624       -24.9426
  30   1.0000      -0.887453       -24.1488
  31   1.0000      -0.868279       -23.6271
  32   1.0000      -0.849748       -23.1228
  33   1.0000      -0.844314       -22.9750
  34   1.0000      -0.817523       -22.2459
  35   1.0000      -0.812145       -22.0996
  36   1.0000      -0.733119       -19.9492
  37   1.0000      -0.728146       -19.8139
  38   1.0000      -0.720545       -19.6070
  39   1.0000      -0.718218       -19.5437
  40   1.0000      -0.713403       -19.4127
  41   1.0000      -0.646968       -17.6049
  42   1.0000      -0.632547       -17.2125
  43   1.0000      -0.626587       -17.0503
  44   1.0000      -0.615313       -16.7435
  45   1.0000      -0.598485       -16.2856
  46   1.0000      -0.594889       -16.1878
  47   1.0000      -0.557926       -15.1820
  48   1.0000      -0.546865       -14.8810
  49   1.0000      -0.540765       -14.7150
  50   1.0000      -0.528982       -14.3943
  51   1.0000      -0.522572       -14.2199
  52   1.0000      -0.518505       -14.1092
  53   1.0000      -0.512514       -13.9462
  54   1.0000      -0.502780       -13.6813
  55   1.0000      -0.487933       -13.2773
  56   1.0000      -0.485804       -13.2194
  57   1.0000      -0.480897       -13.0859
  58   1.0000      -0.473984       -12.8978
  59   1.0000      -0.470525       -12.8036
  60   1.0000      -0.465049       -12.6546
  61   1.0000      -0.446849       -12.1594
  62   1.0000      -0.437670       -11.9096
  63   1.0000      -0.430893       -11.7252
  64   1.0000      -0.411897       -11.2083
  65   1.0000      -0.409668       -11.1476
  66   1.0000      -0.393233       -10.7004
  67   1.0000      -0.391383       -10.6501
  68   1.0000      -0.390343       -10.6218
  69   1.0000      -0.342980        -9.3330
  70   1.0000      -0.333603        -9.0778
  71   1.0000      -0.330998        -9.0069
  72   1.0000      -0.317051        -8.6274
  73   1.0000      -0.315422        -8.5831
  74   1.0000      -0.262949        -7.1552
  75   1.0000      -0.256622        -6.9830
  76   0.0000      -0.064656        -1.7594
  77   0.0000      -0.043047        -1.1714
  78   0.0000      -0.041636        -1.1330
  79   0.0000      -0.038468        -1.0468
  80   0.0000      -0.000131        -0.0036

MULLIKEN ATOMIC CHARGES AND SPIN POPULATIONS
--------------------------------------------
   0 C :   -0.180226   -0.006448
   1 C :   -0.182051    0.005616
   2 C :    0.090335   -0.005724
   3 C :   -0.186959    0.004444
   4 C :   -0.185301   -0.004780
   5 C :    0.092730    0.005399
   6 C :   -0.155405   -0.011754
   7 C :   -0.232977    0.007273
   8 C :    0.093034   -0.015590
   9 C :   -0.063281    0.005745
  10 C :   -0.055114   -0.001947
  11 C :    0.133232    0.067363
  12 C :   -0.385080   -0.108223
  13 C :    0.258562    1.041555
  14 C :   -0.066838   -0.022237
  15 C :   -0.237691   -0.011173
  16 C :   -0.164753   -0.018649
  17 C :    0.088712    0.008090
  18 C :    0.042519   -0.008146
  19 C :    0.069139    0.057153
  20 C :   -0.067383   -0.026971
  21 C :   -0.039013    0.011505
  22 C :    0.055298   -0.005321
  23 C :    0.031101    0.004990
  24 H :    0.136668    0.000122
  25 H :    0.135465   -0.000128
  26 H :    0.135267   -0.000070
  27 H :    0.136076    0.000099
  28 H :    0.136086    0.000308
  29 H :    0.146982   -0.000182
  30 H :    0.143020    0.017515
  31 H :    0.141715    0.009470
  32 H :    0.136132    0.000694
Sum of atomic charges         :   -0.0000000

LOEWDIN ATOMIC CHARGES AND SPIN POPULATIONS
-------------------------------------------
   0 C :   -0.097767   -0.003084
   1 C :   -0.096729    0.002786
   2 C :   -0.092273   -0.002473
   3 C :   -0.098865    0.001944
   4 C :   -0.098133   -0.002565
   5 C :   -0.092034    0.001330
   6 C :   -0.094487   -0.007532
   7 C :   -0.098461    0.002127
   8 C :   -0.095576   -0.008109
   9 C :    0.017672    0.003673
  10 C :    0.011332    0.002695
  11 C :   -0.089567    0.033333
  12 C :   -0.119286    0.057120
  13 C :    0.064951    0.797832
  14 C :   -0.114029    0.078275
  15 C :   -0.094298    0.016946
  16 C :   -0.097333   -0.008595
  17 C :   -0.090717    0.003117
  18 C :   -0.005802    0.003841
  19 C :    0.000558    0.028682
  20 C :    0.008644   -0.017320
  21 C :    0.011131    0.001271
  22 C :   -0.004524   -0.002093
  23 C :   -0.005280    0.002837
  24 H :    0.150902    0.000007
  25 H :    0.150929   -0.000010
  26 H :    0.150769    0.000030
  27 H :    0.150966    0.000015
  28 H :    0.151748    0.000029
  29 H :    0.153707   -0.000002
  30 H :    0.157389    0.012758
  31 H :    0.153181    0.001074
  32 H :    0.151283    0.000060

  Mayer bond orders larger than 0.100000
B(  0-C ,  1-C ) :   1.6324 B(  0-C , 17-C ) :   1.2508 B(  0-C , 24-H ) :   0.9280
B(  1-C ,  2-C ) :   1.2503 B(  1-C , 25-H ) :   0.9313 B(  2-C ,  3-C ) :   1.2317
B(  2-C , 23-C ) :   1.3092 B(  3-C ,  4-C ) :   1.6549 B(  3-C , 26-H ) :   0.9336
B(  4-C ,  5-C ) :   1.2304 B(  4-C , 27-H ) :   0.9300 B(  5-C ,  6-C ) :   1.2557
B(  5-C , 22-C ) :   1.2951 B(  6-C ,  7-C ) :   1.5815 B(  6-C , 28-H ) :   0.9387
B(  7-C ,  8-C ) :   1.2790 B(  7-C , 29-H ) :   0.9471 B(  8-C ,  9-C ) :   1.1570
B(  8-C , 21-C ) :   1.2969 B(  9-C , 10-C ) :   2.5371 B( 10-C , 11-C ) :   1.1603
B( 11-C , 12-C ) :   1.1583 B( 11-C , 20-C ) :   1.2665 B( 12-C , 13-C ) :   1.6695
B( 12-C , 30-H ) :   0.9838 B( 13-C , 14-C ) :   1.3695 B( 14-C , 15-C ) :   1.2249
B( 14-C , 19-C ) :   1.2768 B( 15-C , 16-C ) :   1.6210 B( 15-C , 31-H ) :   0.9557
B( 16-C , 17-C ) :   1.2288 B( 16-C , 32-H ) :   0.9339 B( 17-C , 18-C ) :   1.3165
B( 18-C , 19-C ) :   1.1694 B( 18-C , 23-C ) :   1.1732 B( 19-C , 20-C ) :   1.1401
B( 20-C , 21-C ) :   1.2385 B( 21-C , 22-C ) :   1.1578 B( 22-C , 23-C ) :   1.1609

FINAL SINGLE POINT ENERGY      -919.833511976500

DIPOLE MOMENT
-------------
                                X             Y             Z
Electronic contribution:     -1.10937       9.30967      -0.00031
Nuclear contribution   :      1.26988     -10.30875       0.00035
                        -----------------------------------------
Total Dipole Moment    :      0.16051      -0.99908       0.00004
                        -----------------------------------------
Magnitude (a.u.)       :      1.01189
Magnitude (Debye)      :      2.57203

VIBRATIONAL FREQUENCIES
-----------------------

Scaling factor for frequencies =  1.000000000  (already applied!)

   0:         0.00 cm**-1
   1:         0.00 cm**-1
   2:         0.00 cm**-1
   3:         0.00 cm**-1
   4:         0.00 cm**-1
   5:         0.00 cm**-1
   6:        88.58 cm**-1
   7:        90.17 cm**-1
   8:       130.04 cm**-1
   9:       169.54 cm**-1
  10:       228.83 cm**-1
  11:       296.97 cm**-1
  12:       305.35 cm**-1
  13:       311.80 cm**-1
  14:       329.41 cm**-1
  15:       358.00 cm**-1
  16:       368.82 cm**-1
  17:       389.64 cm**-1
  18:       396.31 cm**-1
  19:       444.80 cm**-1
  20:       452.86 cm**-1
  21:       466.10 cm**-1
  22:       476.37 cm**-1
  23:       497.40 cm**-1
  24:       502.06 cm**-1
  25:       508.51 cm**-1
  26:       512.35 cm**-1
  27:       541.81 cm**-1
  28:       570.03 cm**-1
  29:       584.55 cm**-1
  30:       587.62 cm**-1
  31:       641.85 cm**-1
  32:       654.26 cm**-1
  33:       681.97 cm**-1
  34:       683.85 cm**-1
  35:       688.66 cm**-1
  36:       697.11 cm**-1
  37:       744.88 cm**-1
  38:       770.81 cm**-1
  39:       793.37 cm**-1
  40:       802.37 cm**-1
  41:       838.15 cm**-1
  42:       839.13 cm**-1
  43:       841.53 cm**-1
  44:       855.39 cm**-1
  45:       871.64 cm**-1
  46:       879.04 cm**-1
  47:       886.39 cm**-1
  48:       913.15 cm**-1
  49:       951.02 cm**-1
  50:       982.34 cm**-1
  51:       991.05 cm**-1
  52:       998.25 cm**-1
  53:      1002.06 cm**-1
  54:      1004.65 cm**-1
  55:      1015.72 cm**-1
  56:      1055.22 cm**-1
  57:      1142.77 cm**-1
  58:      1158.91 cm**-1
  59:      1168.21 cm**-1
  60:      1173.52 cm**-1
  61:      1192.59 cm**-1
  62:      1214.40 cm**-1
  63:      1222.42 cm**-1
  64:      1252.34 cm**-1
  65:      1253.75 cm**-1
  66:      1256.77 cm**-1
  67:      1295.83 cm**-1
  68:      1306.92 cm**-1
  69:      1344.41 cm**-1
  70:      1365.53 cm**-1
  71:      1376.86 cm**-1
  72:      1396.34 cm**-1
  73:      1410.88 cm**-1
  74:      1440.03 cm**-1
  75:      1450.29 cm**-1
  76:      1466.71 cm**-1
  77:      1472.28 cm**-1
  78:      1479.16 cm**-1
  79:      1514.53 cm**-1
  80:      1534.51 cm**-1
  81:      1553.56 cm**-1
  82:      1582.15 cm**-1
  83:      1590.46 cm**-1
  84:      1604.23 cm**-1
  85:      1662.09 cm**-1
  86:      1679.67 cm**-1
  87:      1692.21 cm**-1
  88:      1695.10 cm**-1
  89:      2124.58 cm**-1
  90:      3203.81 cm**-1
  91:      3204.78 cm**-1
  92:      3209.96 cm**-1
  93:      3211.92 cm**-1
  94:      3220.22 cm**-1
  95:      3221.30 cm**-1
  96:      3224.91 cm**-1
  97:      3230.26 cm**-1
  98:      3238.56 cm**-1

IR SPECTRUM
-----------

 Mode   freq       eps      Int      T**2         TX        TY        TZ
       cm**-1   L/(mol*cm) km/mol    a.u.
----------------------------------------------------------------------------
  6:     88.58   0.000008    0.04  0.000028  (-0.000015 -0.000018 -0.005256)
  7:     90.17   0.000021    0.11  0.000073  (-0.000032 -0.000001 -0.008537)
  8:    130.04   0.000825    4.17  0.001979  (-0.000028 -0.000017  0.044484)
  9:    169.54   0.000001    0.00  0.000001  ( 0.000008 -0.000005  0.001100)
 10:    228.83   0.000013    0.06  0.000017  ( 0.000016 -0.000003  0.004175)
 11:    296.97   0.000001    0.01  0.000002  (-0.000024 -0.000012 -0.001235)
 12:    305.35   0.000000    0.00  0.000000  (-0.000004 -0.000003 -0.000005)
 13:    311.80   0.000010    0.05  0.000010  ( 0.000015  0.000009  0.003094)
 14:    329.41   0.000488    2.47  0.000462  (-0.000010  0.000002  0.021505)
 15:    358.00   0.001887    9.54  0.001645  ( 0.036789  0.017077  0.000001)
 16:    368.82   0.000032    0.16  0.000027  (-0.003608 -0.003751 -0.000001)
 17:    389.64   0.000958    4.84  0.000767  (-0.013127  0.024395 -0.000001)
 18:    396.31   0.000212    1.07  0.000167  ( 0.001605 -0.012825  0.000001)
 19:    444.80   0.012528   63.31  0.008789  ( 0.078184  0.051737  0.000002)
 20:    452.86   0.000056    0.28  0.000039  ( 0.000004  0.000011 -0.006220)
 21:    466.10   0.000609    3.08  0.000407  (-0.000008 -0.000013  0.020185)
 22:    476.37   0.000225    1.14  0.000148  ( 0.011882 -0.002514  0.000000)
 23:    497.40   0.000105    0.53  0.000066  (-0.005191  0.006228  0.000000)
 24:    502.06   0.000021    0.11  0.000013  ( 0.000336  0.003615  0.000000)
 25:    508.51   0.000042    0.21  0.000026  ( 0.000001 -0.000011 -0.005072)
 26:    512.35   0.000487    2.46  0.000297  ( 0.014532  0.009252 -0.000000)
 27:    541.81   0.000176    0.89  0.000101  ( 0.000010  0.000004  0.010071)
 28:    570.03   0.000036    0.18  0.000020  ( 0.000003  0.000006  0.004442)
 29:    584.55   0.002196   11.10  0.001172  (-0.027619 -0.020237 -0.000007)
 30:    587.62   0.005285   26.71  0.002807  (-0.000018 -0.000006  0.052979)
 31:    641.85   0.000000    0.00  0.000000  ( 0.000011  0.000001 -0.000262)
 32:    654.26   0.000192    0.97  0.000092  ( 0.007127  0.006396  0.000000)
 33:    681.97   0.000029    0.15  0.000013  ( 0.000010  0.000008  0.003666)
 34:    683.85   0.000130    0.66  0.000059  ( 0.002478 -0.007281  0.000001)
 35:    688.66   0.000072    0.36  0.000033  ( 0.004046  0.004017 -0.000001)
 36:    697.11   0.000217    1.10  0.000097  (-0.000011 -0.000004  0.009859)
 37:    744.88   0.002265   11.45  0.000949  (-0.028221 -0.012347 -0.000002)
 38:    770.81   0.000896    4.53  0.000363  (-0.010175  0.016104 -0.000001)
 39:    793.37   0.000001    0.01  0.000000  ( 0.000019  0.000008  0.000660)
 40:    802.37   0.000132    0.67  0.000051  (-0.000008 -0.000014 -0.007175)
 41:    838.15   0.000116    0.59  0.000043  (-0.003291  0.005684 -0.000008)
 42:    839.13   0.000036    0.18  0.000013  (-0.003658  0.000195  0.000012)
 43:    841.53   0.000616    3.11  0.000228  ( 0.000020  0.000009  0.015114)
 44:    855.39   0.000639    3.23  0.000233  ( 0.000009  0.000008  0.015271)
 45:    871.64   0.000241    1.22  0.000086  (-0.000012 -0.000017 -0.009284)
 46:    879.04   0.000437    2.21  0.000155  (-0.000006  0.000002 -0.012461)
 47:    886.39   0.022627  114.35  0.007966  ( 0.000026  0.000009 -0.089253)
 48:    913.15   0.000124    0.63  0.000043  (-0.005618 -0.003310 -0.000000)
 49:    951.02   0.000006    0.03  0.000002  ( 0.000029 -0.000069 -0.001370)
 50:    982.34   0.000003    0.01  0.000001  (-0.000006 -0.000017 -0.000920)
 51:    991.05   0.000102    0.52  0.000032  (-0.000022 -0.000015 -0.005669)
 52:    998.25   0.000009    0.05  0.000003  ( 0.000019  0.000010  0.001684)
 53:   1002.06   0.000000    0.00  0.000000  ( 0.000003  0.000024  0.000381)
 54:   1004.65   0.000071    0.36  0.000022  ( 0.004674 -0.000340  0.000002)
 55:   1015.72   0.000080    0.40  0.000025  (-0.004492 -0.002080  0.000000)
 56:   1055.22   0.000050    0.25  0.000015  (-0.002776  0.002647  0.000000)
 57:   1142.77   0.001357    6.86  0.000371  ( 0.018760 -0.004323 -0.000000)
 58:   1158.91   0.000952    4.81  0.000256  (-0.010576 -0.012019  0.000000)
 59:   1168.21   0.000093    0.47  0.000025  (-0.001198 -0.004838  0.000001)
 60:   1173.52   0.001387    7.01  0.000369  ( 0.004647 -0.018632  0.000001)
 61:   1192.59   0.000429    2.17  0.000112  ( 0.006489 -0.008374  0.000001)
 62:   1214.40   0.000186    0.94  0.000048  (-0.006610  0.002015 -0.000001)
 63:   1222.42   0.000153    0.77  0.000039  (-0.000929  0.006178 -0.000001)
 64:   1252.34   0.000151    0.77  0.000038  (-0.001809 -0.005871  0.000000)
 65:   1253.75   0.000041    0.21  0.000010  (-0.001826  0.002624 -0.000000)
 66:   1256.77   0.000181    0.91  0.000045  ( 0.003723 -0.005576  0.000001)
 67:   1295.83   0.000919    4.65  0.000221  (-0.010561  0.010483 -0.000001)
 68:   1306.92   0.000953    4.82  0.000228  (-0.009109 -0.012026  0.000000)
 69:   1344.41   0.000972    4.91  0.000226  (-0.009719  0.011456  0.000000)
 70:   1365.53   0.000526    2.66  0.000120  ( 0.010610 -0.002744  0.000001)
 71:   1376.86   0.001194    6.03  0.000271  ( 0.012442  0.010763  0.000000)
 72:   1396.34   0.001114    5.63  0.000249  ( 0.012995 -0.008954  0.000000)
 73:   1410.88   0.000228    1.15  0.000050  ( 0.007070 -0.000661  0.000001)
 74:   1440.03   0.000099    0.50  0.000022  ( 0.004554 -0.000885  0.000001)
 75:   1450.29   0.000182    0.92  0.000039  ( 0.006257 -0.000290  0.000000)
 76:   1466.71   0.000015    0.08  0.000003  ( 0.000912 -0.001533  0.000001)
 77:   1472.28   0.000153    0.77  0.000032  ( 0.001631 -0.005450 -0.000000)
 78:   1479.16   0.000554    2.80  0.000117  (-0.001268 -0.010735 -0.000000)
 79:   1514.53   0.000912    4.61  0.000188  (-0.013642 -0.001316 -0.000001)
 80:   1534.51   0.004711   23.81  0.000958  (-0.030732  0.003679 -0.000002)
 81:   1553.56   0.002400   12.13  0.000482  ( 0.006118  0.021088 -0.000000)
 82:   1582.15   0.000035    0.17  0.000007  (-0.001577  0.002082  0.000000)
 83:   1590.46   0.000592    2.99  0.000116  ( 0.010782 -0.000086  0.000001)
 84:   1604.23   0.001887    9.53  0.000367  ( 0.008899  0.016965 -0.000000)
 85:   1662.09   0.002631   13.30  0.000494  (-0.022192 -0.001230 -0.000001)
 86:   1679.67   0.000763    3.86  0.000142  (-0.004792 -0.010901 -0.000000)
 87:   1692.21   0.000600    3.03  0.000111  ( 0.001072  0.010467 -0.000001)
 88:   1695.10   0.001145    5.79  0.000211  ( 0.011706  0.008591  0.000000)
 89:   2124.58   0.000839    4.24  0.000123  ( 0.000889 -0.011062  0.000000)
 90:   3203.81   0.000088    0.45  0.000009  ( 0.002813  0.000838 -0.000000)
 91:   3204.78   0.000058    0.29  0.000006  ( 0.000223 -0.002363  0.000000)
 92:   3209.96   0.000272    1.38  0.000026  (-0.005128  0.000403 -0.000000)
 93:   3211.92   0.000451    2.28  0.000044  ( 0.006546  0.001001  0.000000)
 94:   3220.22   0.001290    6.52  0.000125  ( 0.010398 -0.004114  0.000001)
 95:   3221.30   0.002727   13.78  0.000264  ( 0.003006  0.015973 -0.000000)
 96:   3224.91   0.000103    0.52  0.000010  (-0.000498  0.003121 -0.000000)
 97:   3230.26   0.001358    6.86  0.000131  ( 0.011368 -0.001392  0.000001)
 98:   3238.56   0.000615    3.11  0.000059  (-0.007603 -0.001218 -0.000000)

--------------------------
THERMOCHEMISTRY AT 10000.00K
--------------------------

Temperature         ... 10000.00 K
Pressure            ... 1.00 atm
Total Mass          ... 297.34 AMU

Throughout the following assumptions are being made:
  (1) The electronic state is orbitally nondegenerate
      but the spin degeneracy is treated
  (2) There are no thermally accessible electronically excited states
  (3) Hindered rotations indicated by low frequency modes are not
      treated as such but are treated as vibrations and this may
      cause some error
  (4) All equations used are the standard statistical mechanics
      equations for an ideal gas
  (5) All vibrations are strictly harmonic

freq.      88.58  E(vib)   ...      19.75
freq.      90.17  E(vib)   ...      19.74
freq.     130.04  E(vib)   ...      19.69
freq.     169.54  E(vib)   ...      19.63
freq.     228.83  E(vib)   ...      19.55
freq.     296.97  E(vib)   ...      19.45
freq.     305.35  E(vib)   ...      19.44
freq.     311.80  E(vib)   ...      19.43
freq.     329.41  E(vib)   ...      19.41
freq.     358.00  E(vib)   ...      19.37
freq.     368.82  E(vib)   ...      19.35
freq.     389.64  E(vib)   ...      19.32
freq.     396.31  E(vib)   ...      19.31
freq.     444.80  E(vib)   ...      19.24
freq.     452.86  E(vib)   ...      19.23
freq.     466.10  E(vib)   ...      19.21
freq.     476.37  E(vib)   ...      19.20
freq.     497.40  E(vib)   ...      19.17
freq.     502.06  E(vib)   ...      19.16
freq.     508.51  E(vib)   ...      19.15
freq.     512.35  E(vib)   ...      19.15
freq.     541.81  E(vib)   ...      19.11
freq.     570.03  E(vib)   ...      19.07
freq.     584.55  E(vib)   ...      19.05
freq.     587.62  E(vib)   ...      19.04
freq.     641.85  E(vib)   ...      18.97
freq.     654.26  E(vib)   ...      18.95
freq.     681.97  E(vib)   ...      18.91
freq.     683.85  E(vib)   ...      18.91
freq.     688.66  E(vib)   ...      18.90
freq.     697.11  E(vib)   ...      18.89
freq.     744.88  E(vib)   ...      18.83
freq.     770.81  E(vib)   ...      18.79
freq.     793.37  E(vib)   ...      18.76
freq.     802.37  E(vib)   ...      18.75
freq.     838.15  E(vib)   ...      18.70
freq.     839.13  E(vib)   ...      18.70
freq.     841.53  E(vib)   ...      18.69
freq.     855.39  E(vib)   ...      18.67
freq.     871.64  E(vib)   ...      18.65
freq.     879.04  E(vib)   ...      18.64
freq.     886.39  E(vib)   ...      18.63
freq.     913.15  E(vib)   ...      18.60
freq.     951.02  E(vib)   ...      18.54
freq.     982.34  E(vib)   ...      18.50
freq.     991.05  E(vib)   ...      18.49
freq.     998.25  E(vib)   ...      18.48
freq.    1002.06  E(vib)   ...      18.47
freq.    1004.65  E(vib)   ...      18.47
freq.    1015.72  E(vib)   ...      18.46
freq.    1055.22  E(vib)   ...      18.40
freq.    1142.77  E(vib)   ...      18.28
freq.    1158.91  E(vib)   ...      18.26
freq.    1168.21  E(vib)   ...      18.25
freq.    1173.52  E(vib)   ...      18.24
freq.    1192.59  E(vib)   ...      18.22
freq.    1214.40  E(vib)   ...      18.19
freq.    1222.42  E(vib)   ...      18.18
freq.    1252.34  E(vib)   ...      18.14
freq.    1253.75  E(vib)   ...      18.13
freq.    1256.77  E(vib)   ...      18.13
freq.    1295.83  E(vib)   ...      18.08
freq.    1306.92  E(vib)   ...      18.06
freq.    1344.41  E(vib)   ...      18.01
freq.    1365.53  E(vib)   ...      17.98
freq.    1376.86  E(vib)   ...      17.97
freq.    1396.34  E(vib)   ...      17.94
freq.    1410.88  E(vib)   ...      17.92
freq.    1440.03  E(vib)   ...      17.88
freq.    1450.29  E(vib)   ...      17.87
freq.    1466.71  E(vib)   ...      17.85
freq.    1472.28  E(vib)   ...      17.84
freq.    1479.16  E(vib)   ...      17.83
freq.    1514.53  E(vib)   ...      17.79
freq.    1534.51  E(vib)   ...      17.76
freq.    1553.56  E(vib)   ...      17.73
freq.    1582.15  E(vib)   ...      17.70
freq.    1590.46  E(vib)   ...      17.69
freq.    1604.23  E(vib)   ...      17.67
freq.    1662.09  E(vib)   ...      17.59
freq.    1679.67  E(vib)   ...      17.57
freq.    1692.21  E(vib)   ...      17.55
freq.    1695.10  E(vib)   ...      17.55
freq.    2124.58  E(vib)   ...      16.99
freq.    3203.81  E(vib)   ...      15.64
freq.    3204.78  E(vib)   ...      15.64
freq.    3209.96  E(vib)   ...      15.64
freq.    3211.92  E(vib)   ...      15.63
freq.    3220.22  E(vib)   ...      15.62
freq.    3221.30  E(vib)   ...      15.62
freq.    3224.91  E(vib)   ...      15.62
freq.    3230.26  E(vib)   ...      15.61
freq.    3238.56  E(vib)   ...      15.60

------------
INNER ENERGY
------------

The inner energy is: U= E(el) + E(ZPE) + E(vib) + E(rot) + E(trans)
    E(el)   - is the total energy from the electronic structure calculation
              = E(kin-el) + E(nuc-el) + E(el-el) + E(nuc-nuc)
    E(ZPE)  - the the zero temperature vibrational energy from the frequency calculation
    E(vib)  - the the finite temperature correction to E(ZPE) due to population
              of excited vibrational states
    E(rot)  - is the rotational thermal energy
    E(trans)- is the translational thermal energy

Summary of contributions to the inner energy U:
Electronic energy                ...   -919.83351198 Eh
Zero point energy                ...      0.24543042 Eh     154.01 kcal/mol
Thermal vibrational correction   ...      2.70987644 Eh    1700.47 kcal/mol
Thermal rotational correction    ...      0.04750198 Eh      29.81 kcal/mol
Thermal translational correction ...      0.04750198 Eh      29.81 kcal/mol
-----------------------------------------------------------------------
Total thermal energy                   -916.78320116 Eh

Summary of corrections to the electronic energy:
(perhaps to be used in another calculation)
Total thermal correction                  2.80488040 Eh    1760.09 kcal/mol
Non-thermal (ZPE) correction              0.24543042 Eh     154.01 kcal/mol
-----------------------------------------------------------------------
Total correction                          3.05031081 Eh    1914.09 kcal/mol

--------
ENTHALPY
--------

The enthalpy is H = U + kB*T
                kB is Boltzmann's constant
Total free energy                 ...   -916.78320116 Eh
Thermal Enthalpy correction       ...      0.03166893 Eh      19.87 kcal/mol
-----------------------------------------------------------------------
Total Enthalpy                    ...   -916.75153224 Eh

Note: Rotational entropy computed according to Herzberg
Infrared and Raman Spectra, Chapter V,1, Van Nostrand Reinhold, 1945
Point Group:  Cs, Symmetry Number:   1
Rotational constants in cm-1:     0.011734     0.011305     0.005758

Vibrational entropy computed according to the QRRHO of S. Grimme

                             ****ORCA TERMINATED NORMALLY****
TOTAL RUN TIME: 0 days 4 hours 32 minutes 53 seconds 300 msec
